
     Program PWSCF v.7.1 starts on 23Jun2023 at 16:35:15 

     This program is part of the open-source Quantum ESPRESSO suite
     for quantum simulation of materials; please cite
         "P. Giannozzi et al., J. Phys.:Condens. Matter 21 395502 (2009);
         "P. Giannozzi et al., J. Phys.:Condens. Matter 29 465901 (2017);
         "P. Giannozzi et al., J. Chem. Phys. 152 154105 (2020);
          URL http://www.quantum-espresso.org", 
     in publications or presentations arising from this work. More details at
     http://www.quantum-espresso.org/quote

     Parallel version (MPI & OpenMP), running on      32 processor cores
     Number of MPI processes:                32
     Threads/MPI process:                     1

     MPI processes distributed on     1 nodes
     498722 MiB available memory on the printing compute node when the environment starts

     Reading input from pw.in

     Current dimensions of program PWSCF are:
     Max number of different atomic species (ntypx) = 10
     Max number of k-points (npk) =  40000
     Max angular momentum in pseudopotentials (lmaxx) =  4
     Message from routine cell_base_init:
     DEPRECATED: use true lattice parameter, not A to a.u. conversion factor
     Message from routine setup:
     using ibrav=0 with symmetry is DISCOURAGED, use correct ibrav instead

     K-points division:     npool     =       2
     R & G space division:  proc/nbgrp/npool/nimage =      16
     Subspace diagonalization in iterative solution of the eigenvalue problem:
     a serial algorithm will be used


     Parallelization info
     --------------------
     sticks:   dense  smooth     PW     G-vecs:    dense   smooth      PW
     Min          42      42     13                  745      745     123
     Max          43      43     14                  749      749     126
     Sum         685     685    211                11935    11935    1989

     Using Slab Decomposition



     bravais-lattice index     =            0
     lattice parameter (alat)  =       1.8897  a.u.
     unit-cell volume          =     188.8322 (a.u.)^3
     number of atoms/cell      =            2
     number of atomic types    =            2
     number of electrons       =        18.00
     number of Kohn-Sham states=           13
     kinetic-energy cutoff     =      60.0000  Ry
     charge density cutoff     =     240.0000  Ry
     scf convergence threshold =      1.0E-07
     mixing beta               =       0.7000
     number of iterations used =            8  plain     mixing
     Exchange-correlation= PBE
                           (   1   4   3   4   0   0   0)

     celldm(1)=   1.889726  celldm(2)=   0.000000  celldm(3)=   0.000000
     celldm(4)=   0.000000  celldm(5)=   0.000000  celldm(6)=   0.000000

     crystal axes: (cart. coord. in units of alat)
               a(1) = (   0.000000   2.409627   2.409627 )  
               a(2) = (   2.409627   0.000000   2.409627 )  
               a(3) = (   2.409627   2.409627   0.000000 )  

     reciprocal axes: (cart. coord. in units 2 pi/alat)
               b(1) = ( -0.207501  0.207501  0.207501 )  
               b(2) = (  0.207501 -0.207501  0.207501 )  
               b(3) = (  0.207501  0.207501 -0.207501 )  


     PseudoPot. # 1 for B  read from file:
     ./B.upf
     MD5 check sum: 72f82fc31bc892420d0cab7e25c88ab8
     Pseudo is Norm-conserving + core correction, Zval =  3.0
     Generated using ONCVPSP code by D. R. Hamann
     Using radial grid of 1534 points,  4 beta functions with: 
                l(1) =   0
                l(2) =   0
                l(3) =   1
                l(4) =   1

     PseudoPot. # 2 for As read from file:
     ./As.upf
     MD5 check sum: bfe1a874457ce592347346129958e7cf
     Pseudo is Norm-conserving + core correction, Zval = 15.0
     Generated using ONCVPSP code by D. R. Hamann
     Using radial grid of 1358 points,  6 beta functions with: 
                l(1) =   0
                l(2) =   0
                l(3) =   1
                l(4) =   1
                l(5) =   2
                l(6) =   2

     atomic species   valence    mass     pseudopotential
        B              3.00     1.00000     B ( 1.00)
        As            15.00     1.00000     As( 1.00)

     24 Sym. Ops. (no inversion) found


                                    s                        frac. trans.

      isym =  1     identity                                     

 cryst.   s( 1) = (     1          0          0      )
                  (     0          1          0      )
                  (     0          0          1      )

 cart.    s( 1) = (  1.0000000 -0.0000000  0.0000000 )
                  ( -0.0000000  1.0000000  0.0000000 )
                  ( -0.0000000  0.0000000  1.0000000 )


      isym =  2     180 deg rotation - cart. axis [0,0,1]        

 cryst.   s( 2) = (     0          1         -1      )
                  (     1          0         -1      )
                  (     0          0         -1      )

 cart.    s( 2) = ( -1.0000000  0.0000000  0.0000000 )
                  (  0.0000000 -1.0000000  0.0000000 )
                  (  0.0000000 -0.0000000  1.0000000 )


      isym =  3     180 deg rotation - cart. axis [0,1,0]        

 cryst.   s( 3) = (     0         -1          1      )
                  (     0         -1          0      )
                  (     1         -1          0      )

 cart.    s( 3) = ( -1.0000000 -0.0000000 -0.0000000 )
                  (  0.0000000  1.0000000 -0.0000000 )
                  (  0.0000000  0.0000000 -1.0000000 )


      isym =  4     180 deg rotation - cart. axis [1,0,0]        

 cryst.   s( 4) = (    -1          0          0      )
                  (    -1          0          1      )
                  (    -1          1          0      )

 cart.    s( 4) = (  1.0000000  0.0000000 -0.0000000 )
                  ( -0.0000000 -1.0000000 -0.0000000 )
                  ( -0.0000000 -0.0000000 -1.0000000 )


      isym =  5     120 deg rotation - cart. axis [-1,-1,-1]     

 cryst.   s( 5) = (     0          0          1      )
                  (     1          0          0      )
                  (     0          1          0      )

 cart.    s( 5) = (  0.0000000  1.0000000 -0.0000000 )
                  (  0.0000000 -0.0000000  1.0000000 )
                  (  1.0000000 -0.0000000  0.0000000 )


      isym =  6     120 deg rotation - cart. axis [-1,1,1]       

 cryst.   s( 6) = (     1         -1          0      )
                  (     0         -1          1      )
                  (     0         -1          0      )

 cart.    s( 6) = ( -0.0000000 -1.0000000 -0.0000000 )
                  ( -0.0000000  0.0000000  1.0000000 )
                  ( -1.0000000  0.0000000  0.0000000 )


      isym =  7     120 deg rotation - cart. axis [1,1,-1]       

 cryst.   s( 7) = (    -1          1          0      )
                  (    -1          0          0      )
                  (    -1          0          1      )

 cart.    s( 7) = ( -0.0000000  1.0000000  0.0000000 )
                  ( -0.0000000 -0.0000000 -1.0000000 )
                  ( -1.0000000 -0.0000000 -0.0000000 )


      isym =  8     120 deg rotation - cart. axis [1,-1,1]       

 cryst.   s( 8) = (     0          0         -1      )
                  (     0          1         -1      )
                  (     1          0         -1      )

 cart.    s( 8) = (  0.0000000 -1.0000000  0.0000000 )
                  (  0.0000000  0.0000000 -1.0000000 )
                  (  1.0000000  0.0000000 -0.0000000 )


      isym =  9     120 deg rotation - cart. axis [1,1,1]        

 cryst.   s( 9) = (     0          1          0      )
                  (     0          0          1      )
                  (     1          0          0      )

 cart.    s( 9) = ( -0.0000000  0.0000000  1.0000000 )
                  (  1.0000000  0.0000000 -0.0000000 )
                  (  0.0000000  1.0000000 -0.0000000 )


      isym = 10     120 deg rotation - cart. axis [-1,1,-1]      

 cryst.   s(10) = (    -1          0          1      )
                  (    -1          1          0      )
                  (    -1          0          0      )

 cart.    s(10) = (  0.0000000 -0.0000000  1.0000000 )
                  ( -1.0000000 -0.0000000 -0.0000000 )
                  ( -0.0000000 -1.0000000 -0.0000000 )


      isym = 11     120 deg rotation - cart. axis [1,-1,-1]      

 cryst.   s(11) = (     1          0         -1      )
                  (     0          0         -1      )
                  (     0          1         -1      )

 cart.    s(11) = (  0.0000000  0.0000000 -1.0000000 )
                  ( -1.0000000  0.0000000  0.0000000 )
                  ( -0.0000000  1.0000000  0.0000000 )


      isym = 12     120 deg rotation - cart. axis [-1,-1,1]      

 cryst.   s(12) = (     0         -1          0      )
                  (     1         -1          0      )
                  (     0         -1          1      )

 cart.    s(12) = ( -0.0000000 -0.0000000 -1.0000000 )
                  (  1.0000000 -0.0000000  0.0000000 )
                  (  0.0000000 -1.0000000  0.0000000 )


      isym = 13     inv. 180 deg rotation - cart. axis [1,1,0]   

 cryst.   s(13) = (     1          0         -1      )
                  (     0          1         -1      )
                  (     0          0         -1      )

 cart.    s(13) = (  0.0000000 -1.0000000  0.0000000 )
                  ( -1.0000000  0.0000000  0.0000000 )
                  ( -0.0000000  0.0000000  1.0000000 )


      isym = 14     inv. 180 deg rotation - cart. axis [1,-1,0]  

 cryst.   s(14) = (     0          1          0      )
                  (     1          0          0      )
                  (     0          0          1      )

 cart.    s(14) = ( -0.0000000  1.0000000  0.0000000 )
                  (  1.0000000 -0.0000000  0.0000000 )
                  (  0.0000000 -0.0000000  1.0000000 )


      isym = 15     inv.  90 deg rotation - cart. axis [0,0,-1]  

 cryst.   s(15) = (     0         -1          0      )
                  (     0         -1          1      )
                  (     1         -1          0      )

 cart.    s(15) = ( -0.0000000 -1.0000000 -0.0000000 )
                  (  1.0000000  0.0000000 -0.0000000 )
                  (  0.0000000  0.0000000 -1.0000000 )


      isym = 16     inv.  90 deg rotation - cart. axis [0,0,1]   

 cryst.   s(16) = (    -1          0          1      )
                  (    -1          0          0      )
                  (    -1          1          0      )

 cart.    s(16) = (  0.0000000  1.0000000 -0.0000000 )
                  ( -1.0000000 -0.0000000 -0.0000000 )
                  ( -0.0000000 -0.0000000 -1.0000000 )


      isym = 17     inv. 180 deg rotation - cart. axis [1,0,1]   

 cryst.   s(17) = (     1         -1          0      )
                  (     0         -1          0      )
                  (     0         -1          1      )

 cart.    s(17) = ( -0.0000000 -0.0000000 -1.0000000 )
                  ( -0.0000000  1.0000000  0.0000000 )
                  ( -1.0000000  0.0000000  0.0000000 )


      isym = 18     inv. 180 deg rotation - cart. axis [-1,0,1]  

 cryst.   s(18) = (     0          0          1      )
                  (     0          1          0      )
                  (     1          0          0      )

 cart.    s(18) = (  0.0000000 -0.0000000  1.0000000 )
                  (  0.0000000  1.0000000 -0.0000000 )
                  (  1.0000000  0.0000000 -0.0000000 )


      isym = 19     inv.  90 deg rotation - cart. axis [0,1,0]   

 cryst.   s(19) = (     0          0         -1      )
                  (     1          0         -1      )
                  (     0          1         -1      )

 cart.    s(19) = (  0.0000000  0.0000000 -1.0000000 )
                  (  0.0000000 -1.0000000  0.0000000 )
                  (  1.0000000 -0.0000000  0.0000000 )


      isym = 20     inv.  90 deg rotation - cart. axis [0,-1,0]  

 cryst.   s(20) = (    -1          1          0      )
                  (    -1          0          1      )
                  (    -1          0          0      )

 cart.    s(20) = ( -0.0000000  0.0000000  1.0000000 )
                  ( -0.0000000 -1.0000000 -0.0000000 )
                  ( -1.0000000 -0.0000000 -0.0000000 )


      isym = 21     inv. 180 deg rotation - cart. axis [0,1,1]   

 cryst.   s(21) = (    -1          0          0      )
                  (    -1          1          0      )
                  (    -1          0          1      )

 cart.    s(21) = (  1.0000000 -0.0000000  0.0000000 )
                  ( -0.0000000 -0.0000000 -1.0000000 )
                  ( -0.0000000 -1.0000000 -0.0000000 )


      isym = 22     inv. 180 deg rotation - cart. axis [0,1,-1]  

 cryst.   s(22) = (     1          0          0      )
                  (     0          0          1      )
                  (     0          1          0      )

 cart.    s(22) = (  1.0000000  0.0000000 -0.0000000 )
                  ( -0.0000000  0.0000000  1.0000000 )
                  ( -0.0000000  1.0000000  0.0000000 )


      isym = 23     inv.  90 deg rotation - cart. axis [-1,0,0]  

 cryst.   s(23) = (     0          1         -1      )
                  (     0          0         -1      )
                  (     1          0         -1      )

 cart.    s(23) = ( -1.0000000  0.0000000  0.0000000 )
                  (  0.0000000  0.0000000 -1.0000000 )
                  (  0.0000000  1.0000000 -0.0000000 )


      isym = 24     inv.  90 deg rotation - cart. axis [1,0,0]   

 cryst.   s(24) = (     0         -1          1      )
                  (     1         -1          0      )
                  (     0         -1          0      )

 cart.    s(24) = ( -1.0000000 -0.0000000 -0.0000000 )
                  (  0.0000000 -0.0000000  1.0000000 )
                  (  0.0000000 -1.0000000  0.0000000 )


   Cartesian axes

     site n.     atom                  positions (alat units)
         1           B   tau(   1) = (   3.6144408   3.6144408   3.6144408  )
         2           As  tau(   2) = (   0.0000000   0.0000000   0.0000000  )

   Crystallographic axes

     site n.     atom                  positions (cryst. coord.)
         1           B   tau(   1) = (  0.7500001  0.7500001  0.7500001  )
         2           As  tau(   2) = (  0.0000000  0.0000000  0.0000000  )

     number of k points=   456  Gaussian smearing, width (Ry)=  0.0010
                       cart. coord. in units 2pi/alat
        k(    1) = (   0.0000000   0.0000000   0.0000000), wk =   0.0043860
        k(    2) = (   0.0000000   0.0040686  -0.0000000), wk =   0.0043860
        k(    3) = (  -0.0000000   0.0081373   0.0000000), wk =   0.0043860
        k(    4) = (  -0.0000000   0.0122059   0.0000000), wk =   0.0043860
        k(    5) = (  -0.0000000   0.0162746   0.0000000), wk =   0.0043860
        k(    6) = (  -0.0000000   0.0203432   0.0000000), wk =   0.0043860
        k(    7) = (  -0.0000000   0.0244119   0.0000000), wk =   0.0043860
        k(    8) = (   0.0000000   0.0284805  -0.0000000), wk =   0.0043860
        k(    9) = (   0.0000000   0.0325492  -0.0000000), wk =   0.0043860
        k(   10) = (  -0.0000000   0.0366178   0.0000000), wk =   0.0043860
        k(   11) = (   0.0000000   0.0406865  -0.0000000), wk =   0.0043860
        k(   12) = (  -0.0000000   0.0447551   0.0000000), wk =   0.0043860
        k(   13) = (  -0.0000000   0.0488238   0.0000000), wk =   0.0043860
        k(   14) = (   0.0000000   0.0528924  -0.0000000), wk =   0.0043860
        k(   15) = (   0.0000000   0.0569611  -0.0000000), wk =   0.0043860
        k(   16) = (  -0.0000000   0.0610297   0.0000000), wk =   0.0043860
        k(   17) = (  -0.0000000   0.0650984   0.0000000), wk =   0.0043860
        k(   18) = (   0.0000000   0.0691670  -0.0000000), wk =   0.0043860
        k(   19) = (  -0.0000000   0.0732356   0.0000000), wk =   0.0043860
        k(   20) = (   0.0000000   0.0773043  -0.0000000), wk =   0.0043860
        k(   21) = (   0.0000000   0.0813729  -0.0000000), wk =   0.0043860
        k(   22) = (  -0.0000000   0.0854416   0.0000000), wk =   0.0043860
        k(   23) = (  -0.0000000   0.0895102   0.0000000), wk =   0.0043860
        k(   24) = (   0.0000000   0.0935789  -0.0000000), wk =   0.0043860
        k(   25) = (  -0.0000000   0.0976475   0.0000000), wk =   0.0043860
        k(   26) = (  -0.0000000   0.1017162   0.0000000), wk =   0.0043860
        k(   27) = (   0.0000000   0.1057848  -0.0000000), wk =   0.0043860
        k(   28) = (   0.0000000   0.1098535  -0.0000000), wk =   0.0043860
        k(   29) = (  -0.0000000   0.1139221   0.0000000), wk =   0.0043860
        k(   30) = (   0.0000000   0.1179908  -0.0000000), wk =   0.0043860
        k(   31) = (   0.0000000   0.1220594  -0.0000000), wk =   0.0043860
        k(   32) = (  -0.0000000   0.1261281   0.0000000), wk =   0.0043860
        k(   33) = (  -0.0000000   0.1301967   0.0000000), wk =   0.0043860
        k(   34) = (   0.0000000   0.1342653  -0.0000000), wk =   0.0043860
        k(   35) = (  -0.0000000   0.1383340   0.0000000), wk =   0.0043860
        k(   36) = (  -0.0000000   0.1424026   0.0000000), wk =   0.0043860
        k(   37) = (   0.0000000   0.1464713  -0.0000000), wk =   0.0043860
        k(   38) = (  -0.0000000   0.1505399   0.0000000), wk =   0.0043860
        k(   39) = (   0.0000000   0.1546086  -0.0000000), wk =   0.0043860
        k(   40) = (   0.0000000   0.1586772  -0.0000000), wk =   0.0043860
        k(   41) = (  -0.0000000   0.1627459   0.0000000), wk =   0.0043860
        k(   42) = (  -0.0000000   0.1668145   0.0000000), wk =   0.0043860
        k(   43) = (  -0.0000000   0.1708832   0.0000000), wk =   0.0043860
        k(   44) = (   0.0000000   0.1749518  -0.0000000), wk =   0.0043860
        k(   45) = (  -0.0000000   0.1790205   0.0000000), wk =   0.0043860
        k(   46) = (   0.0000000   0.1830891  -0.0000000), wk =   0.0043860
        k(   47) = (   0.0000000   0.1871578  -0.0000000), wk =   0.0043860
        k(   48) = (  -0.0000000   0.1912264   0.0000000), wk =   0.0043860
        k(   49) = (   0.0000000   0.1952951  -0.0000000), wk =   0.0043860
        k(   50) = (   0.0000000   0.1993637  -0.0000000), wk =   0.0043860
        k(   51) = (  -0.0000000   0.2034323   0.0000000), wk =   0.0043860
        k(   52) = (   0.0000000   0.2075010   0.0000000), wk =   0.0043860
        k(   53) = (   0.0030515   0.2075010   0.0030515), wk =   0.0043860
        k(   54) = (   0.0061030   0.2075010   0.0061030), wk =   0.0043860
        k(   55) = (   0.0091545   0.2075010   0.0091545), wk =   0.0043860
        k(   56) = (   0.0122059   0.2075010   0.0122059), wk =   0.0043860
        k(   57) = (   0.0152574   0.2075010   0.0152574), wk =   0.0043860
        k(   58) = (   0.0183089   0.2075010   0.0183089), wk =   0.0043860
        k(   59) = (   0.0213604   0.2075010   0.0213604), wk =   0.0043860
        k(   60) = (   0.0244119   0.2075010   0.0244119), wk =   0.0043860
        k(   61) = (   0.0274634   0.2075010   0.0274634), wk =   0.0043860
        k(   62) = (   0.0305149   0.2075010   0.0305149), wk =   0.0043860
        k(   63) = (   0.0335663   0.2075010   0.0335663), wk =   0.0043860
        k(   64) = (   0.0366178   0.2075010   0.0366178), wk =   0.0043860
        k(   65) = (   0.0396693   0.2075010   0.0396693), wk =   0.0043860
        k(   66) = (   0.0427208   0.2075010   0.0427208), wk =   0.0043860
        k(   67) = (   0.0457723   0.2075010   0.0457723), wk =   0.0043860
        k(   68) = (   0.0488238   0.2075010   0.0488238), wk =   0.0043860
        k(   69) = (   0.0518752   0.2075010   0.0518752), wk =   0.0043860
        k(   70) = (   0.1556257   0.1556257   0.0000000), wk =   0.0043860
        k(   71) = (   0.1527438   0.1527438   0.0000000), wk =   0.0043860
        k(   72) = (   0.1498618   0.1498618   0.0000000), wk =   0.0043860
        k(   73) = (   0.1469799   0.1469799   0.0000000), wk =   0.0043860
        k(   74) = (   0.1440979   0.1440979  -0.0000000), wk =   0.0043860
        k(   75) = (   0.1412160   0.1412160  -0.0000000), wk =   0.0043860
        k(   76) = (   0.1383340   0.1383340  -0.0000000), wk =   0.0043860
        k(   77) = (   0.1354520   0.1354520   0.0000000), wk =   0.0043860
        k(   78) = (   0.1325701   0.1325701  -0.0000000), wk =   0.0043860
        k(   79) = (   0.1296881   0.1296881  -0.0000000), wk =   0.0043860
        k(   80) = (   0.1268062   0.1268062   0.0000000), wk =   0.0043860
        k(   81) = (   0.1239242   0.1239242  -0.0000000), wk =   0.0043860
        k(   82) = (   0.1210422   0.1210422   0.0000000), wk =   0.0043860
        k(   83) = (   0.1181603   0.1181603  -0.0000000), wk =   0.0043860
        k(   84) = (   0.1152783   0.1152783  -0.0000000), wk =   0.0043860
        k(   85) = (   0.1123964   0.1123964  -0.0000000), wk =   0.0043860
        k(   86) = (   0.1095144   0.1095144  -0.0000000), wk =   0.0043860
        k(   87) = (   0.1066325   0.1066325  -0.0000000), wk =   0.0043860
        k(   88) = (   0.1037505   0.1037505   0.0000000), wk =   0.0043860
        k(   89) = (   0.1008685   0.1008685   0.0000000), wk =   0.0043860
        k(   90) = (   0.0979866   0.0979866   0.0000000), wk =   0.0043860
        k(   91) = (   0.0951046   0.0951046   0.0000000), wk =   0.0043860
        k(   92) = (   0.0922227   0.0922227   0.0000000), wk =   0.0043860
        k(   93) = (   0.0893407   0.0893407   0.0000000), wk =   0.0043860
        k(   94) = (   0.0864587   0.0864587  -0.0000000), wk =   0.0043860
        k(   95) = (   0.0835768   0.0835768   0.0000000), wk =   0.0043860
        k(   96) = (   0.0806948   0.0806948  -0.0000000), wk =   0.0043860
        k(   97) = (   0.0778129   0.0778129   0.0000000), wk =   0.0043860
        k(   98) = (   0.0749309   0.0749309   0.0000000), wk =   0.0043860
        k(   99) = (   0.0720490   0.0720490  -0.0000000), wk =   0.0043860
        k(  100) = (   0.0691670   0.0691670   0.0000000), wk =   0.0043860
        k(  101) = (   0.0662850   0.0662850  -0.0000000), wk =   0.0043860
        k(  102) = (   0.0634031   0.0634031  -0.0000000), wk =   0.0043860
        k(  103) = (   0.0605211   0.0605211  -0.0000000), wk =   0.0043860
        k(  104) = (   0.0576392   0.0576392  -0.0000000), wk =   0.0043860
        k(  105) = (   0.0547572   0.0547572  -0.0000000), wk =   0.0043860
        k(  106) = (   0.0518752   0.0518752   0.0000000), wk =   0.0043860
        k(  107) = (   0.0489933   0.0489933   0.0000000), wk =   0.0043860
        k(  108) = (   0.0461113   0.0461113   0.0000000), wk =   0.0043860
        k(  109) = (   0.0432294   0.0432294   0.0000000), wk =   0.0043860
        k(  110) = (   0.0403474   0.0403474   0.0000000), wk =   0.0043860
        k(  111) = (   0.0374655   0.0374655  -0.0000000), wk =   0.0043860
        k(  112) = (   0.0345835   0.0345835  -0.0000000), wk =   0.0043860
        k(  113) = (   0.0317015   0.0317015  -0.0000000), wk =   0.0043860
        k(  114) = (   0.0288196   0.0288196  -0.0000000), wk =   0.0043860
        k(  115) = (   0.0259376   0.0259376   0.0000000), wk =   0.0043860
        k(  116) = (   0.0230557   0.0230557   0.0000000), wk =   0.0043860
        k(  117) = (   0.0201737   0.0201737   0.0000000), wk =   0.0043860
        k(  118) = (   0.0172917   0.0172917   0.0000000), wk =   0.0043860
        k(  119) = (   0.0144098   0.0144098   0.0000000), wk =   0.0043860
        k(  120) = (   0.0115278   0.0115278  -0.0000000), wk =   0.0043860
        k(  121) = (   0.0086459   0.0086459  -0.0000000), wk =   0.0043860
        k(  122) = (   0.0057639   0.0057639  -0.0000000), wk =   0.0043860
        k(  123) = (   0.0028820   0.0028820  -0.0000000), wk =   0.0043860
        k(  124) = (   0.0000000   0.0000000   0.0000000), wk =   0.0043860
        k(  125) = (   0.0023580   0.0023580   0.0023580), wk =   0.0043860
        k(  126) = (   0.0047159   0.0047159   0.0047159), wk =   0.0043860
        k(  127) = (   0.0070739   0.0070739   0.0070739), wk =   0.0043860
        k(  128) = (   0.0094319   0.0094319   0.0094319), wk =   0.0043860
        k(  129) = (   0.0117898   0.0117898   0.0117898), wk =   0.0043860
        k(  130) = (   0.0141478   0.0141478   0.0141478), wk =   0.0043860
        k(  131) = (   0.0165058   0.0165058   0.0165058), wk =   0.0043860
        k(  132) = (   0.0188637   0.0188637   0.0188637), wk =   0.0043860
        k(  133) = (   0.0212217   0.0212217   0.0212217), wk =   0.0043860
        k(  134) = (   0.0235797   0.0235797   0.0235797), wk =   0.0043860
        k(  135) = (   0.0259376   0.0259376   0.0259376), wk =   0.0043860
        k(  136) = (   0.0282956   0.0282956   0.0282956), wk =   0.0043860
        k(  137) = (   0.0306536   0.0306536   0.0306536), wk =   0.0043860
        k(  138) = (   0.0330115   0.0330115   0.0330115), wk =   0.0043860
        k(  139) = (   0.0353695   0.0353695   0.0353695), wk =   0.0043860
        k(  140) = (   0.0377275   0.0377275   0.0377275), wk =   0.0043860
        k(  141) = (   0.0400854   0.0400854   0.0400854), wk =   0.0043860
        k(  142) = (   0.0424434   0.0424434   0.0424434), wk =   0.0043860
        k(  143) = (   0.0448014   0.0448014   0.0448014), wk =   0.0043860
        k(  144) = (   0.0471593   0.0471593   0.0471593), wk =   0.0043860
        k(  145) = (   0.0495173   0.0495173   0.0495173), wk =   0.0043860
        k(  146) = (   0.0518752   0.0518752   0.0518752), wk =   0.0043860
        k(  147) = (   0.0542332   0.0542332   0.0542332), wk =   0.0043860
        k(  148) = (   0.0565912   0.0565912   0.0565912), wk =   0.0043860
        k(  149) = (   0.0589491   0.0589491   0.0589491), wk =   0.0043860
        k(  150) = (   0.0613071   0.0613071   0.0613071), wk =   0.0043860
        k(  151) = (   0.0636651   0.0636651   0.0636651), wk =   0.0043860
        k(  152) = (   0.0660230   0.0660230   0.0660230), wk =   0.0043860
        k(  153) = (   0.0683810   0.0683810   0.0683810), wk =   0.0043860
        k(  154) = (   0.0707390   0.0707390   0.0707390), wk =   0.0043860
        k(  155) = (   0.0730969   0.0730969   0.0730969), wk =   0.0043860
        k(  156) = (   0.0754549   0.0754549   0.0754549), wk =   0.0043860
        k(  157) = (   0.0778129   0.0778129   0.0778129), wk =   0.0043860
        k(  158) = (   0.0801708   0.0801708   0.0801708), wk =   0.0043860
        k(  159) = (   0.0825288   0.0825288   0.0825288), wk =   0.0043860
        k(  160) = (   0.0848868   0.0848868   0.0848868), wk =   0.0043860
        k(  161) = (   0.0872447   0.0872447   0.0872447), wk =   0.0043860
        k(  162) = (   0.0896027   0.0896027   0.0896027), wk =   0.0043860
        k(  163) = (   0.0919607   0.0919607   0.0919607), wk =   0.0043860
        k(  164) = (   0.0943186   0.0943186   0.0943186), wk =   0.0043860
        k(  165) = (   0.0966766   0.0966766   0.0966766), wk =   0.0043860
        k(  166) = (   0.0990346   0.0990346   0.0990346), wk =   0.0043860
        k(  167) = (   0.1013925   0.1013925   0.1013925), wk =   0.0043860
        k(  168) = (   0.1037505   0.1037505   0.1037505), wk =   0.0043860
        k(  169) = (   0.1037505   0.1067148   0.1007862), wk =   0.0043860
        k(  170) = (   0.1037505   0.1096791   0.0978219), wk =   0.0043860
        k(  171) = (   0.1037505   0.1126434   0.0948576), wk =   0.0043860
        k(  172) = (   0.1037505   0.1156077   0.0918933), wk =   0.0043860
        k(  173) = (   0.1037505   0.1185720   0.0889290), wk =   0.0043860
        k(  174) = (   0.1037505   0.1215363   0.0859647), wk =   0.0043860
        k(  175) = (   0.1037505   0.1245006   0.0830004), wk =   0.0043860
        k(  176) = (   0.1037505   0.1274649   0.0800361), wk =   0.0043860
        k(  177) = (   0.1037505   0.1304292   0.0770718), wk =   0.0043860
        k(  178) = (   0.1037505   0.1333935   0.0741075), wk =   0.0043860
        k(  179) = (   0.1037505   0.1363578   0.0711432), wk =   0.0043860
        k(  180) = (   0.1037505   0.1393221   0.0681789), wk =   0.0043860
        k(  181) = (   0.1037505   0.1422864   0.0652146), wk =   0.0043860
        k(  182) = (   0.1037505   0.1452507   0.0622503), wk =   0.0043860
        k(  183) = (   0.1037505   0.1482150   0.0592860), wk =   0.0043860
        k(  184) = (   0.1037505   0.1511793   0.0563217), wk =   0.0043860
        k(  185) = (   0.1037505   0.1541436   0.0533574), wk =   0.0043860
        k(  186) = (   0.1037505   0.1571079   0.0503931), wk =   0.0043860
        k(  187) = (   0.1037505   0.1600722   0.0474288), wk =   0.0043860
        k(  188) = (   0.1037505   0.1630365   0.0444645), wk =   0.0043860
        k(  189) = (   0.1037505   0.1660008   0.0415002), wk =   0.0043860
        k(  190) = (   0.1037505   0.1689651   0.0385359), wk =   0.0043860
        k(  191) = (   0.1037505   0.1719294   0.0355716), wk =   0.0043860
        k(  192) = (   0.1037505   0.1748937   0.0326073), wk =   0.0043860
        k(  193) = (   0.1037505   0.1778580   0.0296430), wk =   0.0043860
        k(  194) = (   0.1037505   0.1808223   0.0266787), wk =   0.0043860
        k(  195) = (   0.1037505   0.1837866   0.0237144), wk =   0.0043860
        k(  196) = (   0.1037505   0.1867509   0.0207501), wk =   0.0043860
        k(  197) = (   0.1037505   0.1897152   0.0177858), wk =   0.0043860
        k(  198) = (   0.1037505   0.1926795   0.0148215), wk =   0.0043860
        k(  199) = (   0.1037505   0.1956438   0.0118572), wk =   0.0043860
        k(  200) = (   0.1037505   0.1986081   0.0088929), wk =   0.0043860
        k(  201) = (   0.1037505   0.2015724   0.0059286), wk =   0.0043860
        k(  202) = (   0.1037505   0.2045367   0.0029643), wk =   0.0043860
        k(  203) = (   0.1037505   0.2075010   0.0000000), wk =   0.0043860
        k(  204) = (   0.0996005   0.2075010   0.0000000), wk =   0.0043860
        k(  205) = (   0.0954505   0.2075010  -0.0000000), wk =   0.0043860
        k(  206) = (   0.0913004   0.2075010   0.0000000), wk =   0.0043860
        k(  207) = (   0.0871504   0.2075010   0.0000000), wk =   0.0043860
        k(  208) = (   0.0830004   0.2075010   0.0000000), wk =   0.0043860
        k(  209) = (   0.0788504   0.2075010   0.0000000), wk =   0.0043860
        k(  210) = (   0.0747004   0.2075010  -0.0000000), wk =   0.0043860
        k(  211) = (   0.0705503   0.2075010  -0.0000000), wk =   0.0043860
        k(  212) = (   0.0664003   0.2075010   0.0000000), wk =   0.0043860
        k(  213) = (   0.0622503   0.2075010  -0.0000000), wk =   0.0043860
        k(  214) = (   0.0581003   0.2075010  -0.0000000), wk =   0.0043860
        k(  215) = (   0.0539503   0.2075010   0.0000000), wk =   0.0043860
        k(  216) = (   0.0498002   0.2075010   0.0000000), wk =   0.0043860
        k(  217) = (   0.0456502   0.2075010  -0.0000000), wk =   0.0043860
        k(  218) = (   0.0415002   0.2075010   0.0000000), wk =   0.0043860
        k(  219) = (   0.0373502   0.2075010   0.0000000), wk =   0.0043860
        k(  220) = (   0.0332002   0.2075010   0.0000000), wk =   0.0043860
        k(  221) = (   0.0290501   0.2075010   0.0000000), wk =   0.0043860
        k(  222) = (   0.0249001   0.2075010  -0.0000000), wk =   0.0043860
        k(  223) = (   0.0207501   0.2075010  -0.0000000), wk =   0.0043860
        k(  224) = (   0.0166001   0.2075010  -0.0000000), wk =   0.0043860
        k(  225) = (   0.0124501   0.2075010  -0.0000000), wk =   0.0043860
        k(  226) = (   0.0083000   0.2075010   0.0000000), wk =   0.0043860
        k(  227) = (   0.0041500   0.2075010  -0.0000000), wk =   0.0043860
        k(  228) = (   0.0000000   0.2075010   0.0000000), wk =   0.0043860
        k(  229) = (   0.0000000   0.0000000   0.0000000), wk =   0.0043860
        k(  230) = (  -0.0000000  -0.0040686   0.0000000), wk =   0.0043860
        k(  231) = (   0.0000000  -0.0081373  -0.0000000), wk =   0.0043860
        k(  232) = (   0.0000000  -0.0122059  -0.0000000), wk =   0.0043860
        k(  233) = (   0.0000000  -0.0162746  -0.0000000), wk =   0.0043860
        k(  234) = (   0.0000000  -0.0203432  -0.0000000), wk =   0.0043860
        k(  235) = (   0.0000000  -0.0244119  -0.0000000), wk =   0.0043860
        k(  236) = (  -0.0000000  -0.0284805   0.0000000), wk =   0.0043860
        k(  237) = (  -0.0000000  -0.0325492   0.0000000), wk =   0.0043860
        k(  238) = (   0.0000000  -0.0366178  -0.0000000), wk =   0.0043860
        k(  239) = (  -0.0000000  -0.0406865   0.0000000), wk =   0.0043860
        k(  240) = (   0.0000000  -0.0447551  -0.0000000), wk =   0.0043860
        k(  241) = (   0.0000000  -0.0488238  -0.0000000), wk =   0.0043860
        k(  242) = (  -0.0000000  -0.0528924   0.0000000), wk =   0.0043860
        k(  243) = (  -0.0000000  -0.0569611   0.0000000), wk =   0.0043860
        k(  244) = (   0.0000000  -0.0610297  -0.0000000), wk =   0.0043860
        k(  245) = (   0.0000000  -0.0650984  -0.0000000), wk =   0.0043860
        k(  246) = (  -0.0000000  -0.0691670   0.0000000), wk =   0.0043860
        k(  247) = (   0.0000000  -0.0732356  -0.0000000), wk =   0.0043860
        k(  248) = (  -0.0000000  -0.0773043   0.0000000), wk =   0.0043860
        k(  249) = (  -0.0000000  -0.0813729   0.0000000), wk =   0.0043860
        k(  250) = (   0.0000000  -0.0854416  -0.0000000), wk =   0.0043860
        k(  251) = (   0.0000000  -0.0895102  -0.0000000), wk =   0.0043860
        k(  252) = (  -0.0000000  -0.0935789   0.0000000), wk =   0.0043860
        k(  253) = (   0.0000000  -0.0976475  -0.0000000), wk =   0.0043860
        k(  254) = (   0.0000000  -0.1017162  -0.0000000), wk =   0.0043860
        k(  255) = (  -0.0000000  -0.1057848   0.0000000), wk =   0.0043860
        k(  256) = (  -0.0000000  -0.1098535   0.0000000), wk =   0.0043860
        k(  257) = (   0.0000000  -0.1139221  -0.0000000), wk =   0.0043860
        k(  258) = (  -0.0000000  -0.1179908   0.0000000), wk =   0.0043860
        k(  259) = (  -0.0000000  -0.1220594   0.0000000), wk =   0.0043860
        k(  260) = (   0.0000000  -0.1261281  -0.0000000), wk =   0.0043860
        k(  261) = (   0.0000000  -0.1301967  -0.0000000), wk =   0.0043860
        k(  262) = (  -0.0000000  -0.1342653   0.0000000), wk =   0.0043860
        k(  263) = (   0.0000000  -0.1383340  -0.0000000), wk =   0.0043860
        k(  264) = (   0.0000000  -0.1424026  -0.0000000), wk =   0.0043860
        k(  265) = (  -0.0000000  -0.1464713   0.0000000), wk =   0.0043860
        k(  266) = (   0.0000000  -0.1505399  -0.0000000), wk =   0.0043860
        k(  267) = (  -0.0000000  -0.1546086   0.0000000), wk =   0.0043860
        k(  268) = (  -0.0000000  -0.1586772   0.0000000), wk =   0.0043860
        k(  269) = (   0.0000000  -0.1627459  -0.0000000), wk =   0.0043860
        k(  270) = (   0.0000000  -0.1668145  -0.0000000), wk =   0.0043860
        k(  271) = (   0.0000000  -0.1708832  -0.0000000), wk =   0.0043860
        k(  272) = (  -0.0000000  -0.1749518   0.0000000), wk =   0.0043860
        k(  273) = (   0.0000000  -0.1790205  -0.0000000), wk =   0.0043860
        k(  274) = (  -0.0000000  -0.1830891   0.0000000), wk =   0.0043860
        k(  275) = (  -0.0000000  -0.1871578   0.0000000), wk =   0.0043860
        k(  276) = (   0.0000000  -0.1912264  -0.0000000), wk =   0.0043860
        k(  277) = (  -0.0000000  -0.1952951   0.0000000), wk =   0.0043860
        k(  278) = (  -0.0000000  -0.1993637   0.0000000), wk =   0.0043860
        k(  279) = (   0.0000000  -0.2034323  -0.0000000), wk =   0.0043860
        k(  280) = (   0.0000000  -0.2075010   0.0000000), wk =   0.0043860
        k(  281) = (  -0.0030515  -0.2075010  -0.0030515), wk =   0.0043860
        k(  282) = (  -0.0061030  -0.2075010  -0.0061030), wk =   0.0043860
        k(  283) = (  -0.0091545  -0.2075010  -0.0091545), wk =   0.0043860
        k(  284) = (  -0.0122059  -0.2075010  -0.0122059), wk =   0.0043860
        k(  285) = (  -0.0152574  -0.2075010  -0.0152574), wk =   0.0043860
        k(  286) = (  -0.0183089  -0.2075010  -0.0183089), wk =   0.0043860
        k(  287) = (  -0.0213604  -0.2075010  -0.0213604), wk =   0.0043860
        k(  288) = (  -0.0244119  -0.2075010  -0.0244119), wk =   0.0043860
        k(  289) = (  -0.0274634  -0.2075010  -0.0274634), wk =   0.0043860
        k(  290) = (  -0.0305149  -0.2075010  -0.0305149), wk =   0.0043860
        k(  291) = (  -0.0335663  -0.2075010  -0.0335663), wk =   0.0043860
        k(  292) = (  -0.0366178  -0.2075010  -0.0366178), wk =   0.0043860
        k(  293) = (  -0.0396693  -0.2075010  -0.0396693), wk =   0.0043860
        k(  294) = (  -0.0427208  -0.2075010  -0.0427208), wk =   0.0043860
        k(  295) = (  -0.0457723  -0.2075010  -0.0457723), wk =   0.0043860
        k(  296) = (  -0.0488238  -0.2075010  -0.0488238), wk =   0.0043860
        k(  297) = (  -0.0518752  -0.2075010  -0.0518752), wk =   0.0043860
        k(  298) = (  -0.1556257  -0.1556257  -0.0000000), wk =   0.0043860
        k(  299) = (  -0.1527438  -0.1527438  -0.0000000), wk =   0.0043860
        k(  300) = (  -0.1498618  -0.1498618  -0.0000000), wk =   0.0043860
        k(  301) = (  -0.1469799  -0.1469799  -0.0000000), wk =   0.0043860
        k(  302) = (  -0.1440979  -0.1440979   0.0000000), wk =   0.0043860
        k(  303) = (  -0.1412160  -0.1412160   0.0000000), wk =   0.0043860
        k(  304) = (  -0.1383340  -0.1383340   0.0000000), wk =   0.0043860
        k(  305) = (  -0.1354520  -0.1354520  -0.0000000), wk =   0.0043860
        k(  306) = (  -0.1325701  -0.1325701   0.0000000), wk =   0.0043860
        k(  307) = (  -0.1296881  -0.1296881   0.0000000), wk =   0.0043860
        k(  308) = (  -0.1268062  -0.1268062  -0.0000000), wk =   0.0043860
        k(  309) = (  -0.1239242  -0.1239242   0.0000000), wk =   0.0043860
        k(  310) = (  -0.1210422  -0.1210422  -0.0000000), wk =   0.0043860
        k(  311) = (  -0.1181603  -0.1181603   0.0000000), wk =   0.0043860
        k(  312) = (  -0.1152783  -0.1152783   0.0000000), wk =   0.0043860
        k(  313) = (  -0.1123964  -0.1123964   0.0000000), wk =   0.0043860
        k(  314) = (  -0.1095144  -0.1095144   0.0000000), wk =   0.0043860
        k(  315) = (  -0.1066325  -0.1066325   0.0000000), wk =   0.0043860
        k(  316) = (  -0.1037505  -0.1037505   0.0000000), wk =   0.0043860
        k(  317) = (  -0.1008685  -0.1008685  -0.0000000), wk =   0.0043860
        k(  318) = (  -0.0979866  -0.0979866  -0.0000000), wk =   0.0043860
        k(  319) = (  -0.0951046  -0.0951046  -0.0000000), wk =   0.0043860
        k(  320) = (  -0.0922227  -0.0922227  -0.0000000), wk =   0.0043860
        k(  321) = (  -0.0893407  -0.0893407  -0.0000000), wk =   0.0043860
        k(  322) = (  -0.0864587  -0.0864587   0.0000000), wk =   0.0043860
        k(  323) = (  -0.0835768  -0.0835768  -0.0000000), wk =   0.0043860
        k(  324) = (  -0.0806948  -0.0806948   0.0000000), wk =   0.0043860
        k(  325) = (  -0.0778129  -0.0778129  -0.0000000), wk =   0.0043860
        k(  326) = (  -0.0749309  -0.0749309  -0.0000000), wk =   0.0043860
        k(  327) = (  -0.0720490  -0.0720490   0.0000000), wk =   0.0043860
        k(  328) = (  -0.0691670  -0.0691670  -0.0000000), wk =   0.0043860
        k(  329) = (  -0.0662850  -0.0662850   0.0000000), wk =   0.0043860
        k(  330) = (  -0.0634031  -0.0634031   0.0000000), wk =   0.0043860
        k(  331) = (  -0.0605211  -0.0605211   0.0000000), wk =   0.0043860
        k(  332) = (  -0.0576392  -0.0576392   0.0000000), wk =   0.0043860
        k(  333) = (  -0.0547572  -0.0547572   0.0000000), wk =   0.0043860
        k(  334) = (  -0.0518752  -0.0518752   0.0000000), wk =   0.0043860
        k(  335) = (  -0.0489933  -0.0489933  -0.0000000), wk =   0.0043860
        k(  336) = (  -0.0461113  -0.0461113  -0.0000000), wk =   0.0043860
        k(  337) = (  -0.0432294  -0.0432294  -0.0000000), wk =   0.0043860
        k(  338) = (  -0.0403474  -0.0403474  -0.0000000), wk =   0.0043860
        k(  339) = (  -0.0374655  -0.0374655   0.0000000), wk =   0.0043860
        k(  340) = (  -0.0345835  -0.0345835   0.0000000), wk =   0.0043860
        k(  341) = (  -0.0317015  -0.0317015   0.0000000), wk =   0.0043860
        k(  342) = (  -0.0288196  -0.0288196   0.0000000), wk =   0.0043860
        k(  343) = (  -0.0259376  -0.0259376   0.0000000), wk =   0.0043860
        k(  344) = (  -0.0230557  -0.0230557  -0.0000000), wk =   0.0043860
        k(  345) = (  -0.0201737  -0.0201737  -0.0000000), wk =   0.0043860
        k(  346) = (  -0.0172917  -0.0172917  -0.0000000), wk =   0.0043860
        k(  347) = (  -0.0144098  -0.0144098  -0.0000000), wk =   0.0043860
        k(  348) = (  -0.0115278  -0.0115278   0.0000000), wk =   0.0043860
        k(  349) = (  -0.0086459  -0.0086459   0.0000000), wk =   0.0043860
        k(  350) = (  -0.0057639  -0.0057639   0.0000000), wk =   0.0043860
        k(  351) = (  -0.0028820  -0.0028820   0.0000000), wk =   0.0043860
        k(  352) = (   0.0000000   0.0000000   0.0000000), wk =   0.0043860
        k(  353) = (  -0.0023580  -0.0023580  -0.0023580), wk =   0.0043860
        k(  354) = (  -0.0047159  -0.0047159  -0.0047159), wk =   0.0043860
        k(  355) = (  -0.0070739  -0.0070739  -0.0070739), wk =   0.0043860
        k(  356) = (  -0.0094319  -0.0094319  -0.0094319), wk =   0.0043860
        k(  357) = (  -0.0117898  -0.0117898  -0.0117898), wk =   0.0043860
        k(  358) = (  -0.0141478  -0.0141478  -0.0141478), wk =   0.0043860
        k(  359) = (  -0.0165058  -0.0165058  -0.0165058), wk =   0.0043860
        k(  360) = (  -0.0188637  -0.0188637  -0.0188637), wk =   0.0043860
        k(  361) = (  -0.0212217  -0.0212217  -0.0212217), wk =   0.0043860
        k(  362) = (  -0.0235797  -0.0235797  -0.0235797), wk =   0.0043860
        k(  363) = (  -0.0259376  -0.0259376  -0.0259376), wk =   0.0043860
        k(  364) = (  -0.0282956  -0.0282956  -0.0282956), wk =   0.0043860
        k(  365) = (  -0.0306536  -0.0306536  -0.0306536), wk =   0.0043860
        k(  366) = (  -0.0330115  -0.0330115  -0.0330115), wk =   0.0043860
        k(  367) = (  -0.0353695  -0.0353695  -0.0353695), wk =   0.0043860
        k(  368) = (  -0.0377275  -0.0377275  -0.0377275), wk =   0.0043860
        k(  369) = (  -0.0400854  -0.0400854  -0.0400854), wk =   0.0043860
        k(  370) = (  -0.0424434  -0.0424434  -0.0424434), wk =   0.0043860
        k(  371) = (  -0.0448014  -0.0448014  -0.0448014), wk =   0.0043860
        k(  372) = (  -0.0471593  -0.0471593  -0.0471593), wk =   0.0043860
        k(  373) = (  -0.0495173  -0.0495173  -0.0495173), wk =   0.0043860
        k(  374) = (  -0.0518752  -0.0518752  -0.0518752), wk =   0.0043860
        k(  375) = (  -0.0542332  -0.0542332  -0.0542332), wk =   0.0043860
        k(  376) = (  -0.0565912  -0.0565912  -0.0565912), wk =   0.0043860
        k(  377) = (  -0.0589491  -0.0589491  -0.0589491), wk =   0.0043860
        k(  378) = (  -0.0613071  -0.0613071  -0.0613071), wk =   0.0043860
        k(  379) = (  -0.0636651  -0.0636651  -0.0636651), wk =   0.0043860
        k(  380) = (  -0.0660230  -0.0660230  -0.0660230), wk =   0.0043860
        k(  381) = (  -0.0683810  -0.0683810  -0.0683810), wk =   0.0043860
        k(  382) = (  -0.0707390  -0.0707390  -0.0707390), wk =   0.0043860
        k(  383) = (  -0.0730969  -0.0730969  -0.0730969), wk =   0.0043860
        k(  384) = (  -0.0754549  -0.0754549  -0.0754549), wk =   0.0043860
        k(  385) = (  -0.0778129  -0.0778129  -0.0778129), wk =   0.0043860
        k(  386) = (  -0.0801708  -0.0801708  -0.0801708), wk =   0.0043860
        k(  387) = (  -0.0825288  -0.0825288  -0.0825288), wk =   0.0043860
        k(  388) = (  -0.0848868  -0.0848868  -0.0848868), wk =   0.0043860
        k(  389) = (  -0.0872447  -0.0872447  -0.0872447), wk =   0.0043860
        k(  390) = (  -0.0896027  -0.0896027  -0.0896027), wk =   0.0043860
        k(  391) = (  -0.0919607  -0.0919607  -0.0919607), wk =   0.0043860
        k(  392) = (  -0.0943186  -0.0943186  -0.0943186), wk =   0.0043860
        k(  393) = (  -0.0966766  -0.0966766  -0.0966766), wk =   0.0043860
        k(  394) = (  -0.0990346  -0.0990346  -0.0990346), wk =   0.0043860
        k(  395) = (  -0.1013925  -0.1013925  -0.1013925), wk =   0.0043860
        k(  396) = (  -0.1037505  -0.1037505  -0.1037505), wk =   0.0043860
        k(  397) = (  -0.1037505  -0.1067148  -0.1007862), wk =   0.0043860
        k(  398) = (  -0.1037505  -0.1096791  -0.0978219), wk =   0.0043860
        k(  399) = (  -0.1037505  -0.1126434  -0.0948576), wk =   0.0043860
        k(  400) = (  -0.1037505  -0.1156077  -0.0918933), wk =   0.0043860
        k(  401) = (  -0.1037505  -0.1185720  -0.0889290), wk =   0.0043860
        k(  402) = (  -0.1037505  -0.1215363  -0.0859647), wk =   0.0043860
        k(  403) = (  -0.1037505  -0.1245006  -0.0830004), wk =   0.0043860
        k(  404) = (  -0.1037505  -0.1274649  -0.0800361), wk =   0.0043860
        k(  405) = (  -0.1037505  -0.1304292  -0.0770718), wk =   0.0043860
        k(  406) = (  -0.1037505  -0.1333935  -0.0741075), wk =   0.0043860
        k(  407) = (  -0.1037505  -0.1363578  -0.0711432), wk =   0.0043860
        k(  408) = (  -0.1037505  -0.1393221  -0.0681789), wk =   0.0043860
        k(  409) = (  -0.1037505  -0.1422864  -0.0652146), wk =   0.0043860
        k(  410) = (  -0.1037505  -0.1452507  -0.0622503), wk =   0.0043860
        k(  411) = (  -0.1037505  -0.1482150  -0.0592860), wk =   0.0043860
        k(  412) = (  -0.1037505  -0.1511793  -0.0563217), wk =   0.0043860
        k(  413) = (  -0.1037505  -0.1541436  -0.0533574), wk =   0.0043860
        k(  414) = (  -0.1037505  -0.1571079  -0.0503931), wk =   0.0043860
        k(  415) = (  -0.1037505  -0.1600722  -0.0474288), wk =   0.0043860
        k(  416) = (  -0.1037505  -0.1630365  -0.0444645), wk =   0.0043860
        k(  417) = (  -0.1037505  -0.1660008  -0.0415002), wk =   0.0043860
        k(  418) = (  -0.1037505  -0.1689651  -0.0385359), wk =   0.0043860
        k(  419) = (  -0.1037505  -0.1719294  -0.0355716), wk =   0.0043860
        k(  420) = (  -0.1037505  -0.1748937  -0.0326073), wk =   0.0043860
        k(  421) = (  -0.1037505  -0.1778580  -0.0296430), wk =   0.0043860
        k(  422) = (  -0.1037505  -0.1808223  -0.0266787), wk =   0.0043860
        k(  423) = (  -0.1037505  -0.1837866  -0.0237144), wk =   0.0043860
        k(  424) = (  -0.1037505  -0.1867509  -0.0207501), wk =   0.0043860
        k(  425) = (  -0.1037505  -0.1897152  -0.0177858), wk =   0.0043860
        k(  426) = (  -0.1037505  -0.1926795  -0.0148215), wk =   0.0043860
        k(  427) = (  -0.1037505  -0.1956438  -0.0118572), wk =   0.0043860
        k(  428) = (  -0.1037505  -0.1986081  -0.0088929), wk =   0.0043860
        k(  429) = (  -0.1037505  -0.2015724  -0.0059286), wk =   0.0043860
        k(  430) = (  -0.1037505  -0.2045367  -0.0029643), wk =   0.0043860
        k(  431) = (  -0.1037505  -0.2075010  -0.0000000), wk =   0.0043860
        k(  432) = (  -0.0996005  -0.2075010  -0.0000000), wk =   0.0043860
        k(  433) = (  -0.0954505  -0.2075010   0.0000000), wk =   0.0043860
        k(  434) = (  -0.0913004  -0.2075010  -0.0000000), wk =   0.0043860
        k(  435) = (  -0.0871504  -0.2075010  -0.0000000), wk =   0.0043860
        k(  436) = (  -0.0830004  -0.2075010  -0.0000000), wk =   0.0043860
        k(  437) = (  -0.0788504  -0.2075010  -0.0000000), wk =   0.0043860
        k(  438) = (  -0.0747004  -0.2075010   0.0000000), wk =   0.0043860
        k(  439) = (  -0.0705503  -0.2075010   0.0000000), wk =   0.0043860
        k(  440) = (  -0.0664003  -0.2075010  -0.0000000), wk =   0.0043860
        k(  441) = (  -0.0622503  -0.2075010   0.0000000), wk =   0.0043860
        k(  442) = (  -0.0581003  -0.2075010   0.0000000), wk =   0.0043860
        k(  443) = (  -0.0539503  -0.2075010  -0.0000000), wk =   0.0043860
        k(  444) = (  -0.0498002  -0.2075010  -0.0000000), wk =   0.0043860
        k(  445) = (  -0.0456502  -0.2075010   0.0000000), wk =   0.0043860
        k(  446) = (  -0.0415002  -0.2075010  -0.0000000), wk =   0.0043860
        k(  447) = (  -0.0373502  -0.2075010  -0.0000000), wk =   0.0043860
        k(  448) = (  -0.0332002  -0.2075010  -0.0000000), wk =   0.0043860
        k(  449) = (  -0.0290501  -0.2075010  -0.0000000), wk =   0.0043860
        k(  450) = (  -0.0249001  -0.2075010   0.0000000), wk =   0.0043860
        k(  451) = (  -0.0207501  -0.2075010   0.0000000), wk =   0.0043860
        k(  452) = (  -0.0166001  -0.2075010   0.0000000), wk =   0.0043860
        k(  453) = (  -0.0124501  -0.2075010   0.0000000), wk =   0.0043860
        k(  454) = (  -0.0083000  -0.2075010  -0.0000000), wk =   0.0043860
        k(  455) = (  -0.0041500  -0.2075010   0.0000000), wk =   0.0043860
        k(  456) = (   0.0000000  -0.2075010   0.0000000), wk =   0.0043860

                       cryst. coord.
        k(    1) = (   0.0000000   0.0000000   0.0000000), wk =   0.0043860
        k(    2) = (   0.0098039  -0.0000000   0.0098039), wk =   0.0043860
        k(    3) = (   0.0196078   0.0000000   0.0196078), wk =   0.0043860
        k(    4) = (   0.0294118  -0.0000000   0.0294118), wk =   0.0043860
        k(    5) = (   0.0392157   0.0000000   0.0392157), wk =   0.0043860
        k(    6) = (   0.0490196   0.0000000   0.0490196), wk =   0.0043860
        k(    7) = (   0.0588235  -0.0000000   0.0588235), wk =   0.0043860
        k(    8) = (   0.0686275   0.0000000   0.0686275), wk =   0.0043860
        k(    9) = (   0.0784314  -0.0000000   0.0784314), wk =   0.0043860
        k(   10) = (   0.0882353  -0.0000000   0.0882353), wk =   0.0043860
        k(   11) = (   0.0980392   0.0000000   0.0980392), wk =   0.0043860
        k(   12) = (   0.1078431  -0.0000000   0.1078431), wk =   0.0043860
        k(   13) = (   0.1176471  -0.0000000   0.1176471), wk =   0.0043860
        k(   14) = (   0.1274510  -0.0000000   0.1274510), wk =   0.0043860
        k(   15) = (   0.1372549   0.0000000   0.1372549), wk =   0.0043860
        k(   16) = (   0.1470588  -0.0000000   0.1470588), wk =   0.0043860
        k(   17) = (   0.1568627  -0.0000000   0.1568627), wk =   0.0043860
        k(   18) = (   0.1666667  -0.0000000   0.1666667), wk =   0.0043860
        k(   19) = (   0.1764706  -0.0000000   0.1764706), wk =   0.0043860
        k(   20) = (   0.1862745   0.0000000   0.1862745), wk =   0.0043860
        k(   21) = (   0.1960784   0.0000000   0.1960784), wk =   0.0043860
        k(   22) = (   0.2058824   0.0000000   0.2058824), wk =   0.0043860
        k(   23) = (   0.2156863  -0.0000000   0.2156863), wk =   0.0043860
        k(   24) = (   0.2254902  -0.0000000   0.2254902), wk =   0.0043860
        k(   25) = (   0.2352941  -0.0000000   0.2352941), wk =   0.0043860
        k(   26) = (   0.2450980   0.0000000   0.2450980), wk =   0.0043860
        k(   27) = (   0.2549020  -0.0000000   0.2549020), wk =   0.0043860
        k(   28) = (   0.2647059  -0.0000000   0.2647059), wk =   0.0043860
        k(   29) = (   0.2745098   0.0000000   0.2745098), wk =   0.0043860
        k(   30) = (   0.2843137   0.0000000   0.2843137), wk =   0.0043860
        k(   31) = (   0.2941176  -0.0000000   0.2941176), wk =   0.0043860
        k(   32) = (   0.3039216  -0.0000000   0.3039216), wk =   0.0043860
        k(   33) = (   0.3137255  -0.0000000   0.3137255), wk =   0.0043860
        k(   34) = (   0.3235294   0.0000000   0.3235294), wk =   0.0043860
        k(   35) = (   0.3333333   0.0000000   0.3333333), wk =   0.0043860
        k(   36) = (   0.3431373  -0.0000000   0.3431373), wk =   0.0043860
        k(   37) = (   0.3529412   0.0000000   0.3529412), wk =   0.0043860
        k(   38) = (   0.3627451  -0.0000000   0.3627451), wk =   0.0043860
        k(   39) = (   0.3725490   0.0000000   0.3725490), wk =   0.0043860
        k(   40) = (   0.3823529   0.0000000   0.3823529), wk =   0.0043860
        k(   41) = (   0.3921569  -0.0000000   0.3921569), wk =   0.0043860
        k(   42) = (   0.4019608   0.0000000   0.4019608), wk =   0.0043860
        k(   43) = (   0.4117647   0.0000000   0.4117647), wk =   0.0043860
        k(   44) = (   0.4215686   0.0000000   0.4215686), wk =   0.0043860
        k(   45) = (   0.4313725  -0.0000000   0.4313725), wk =   0.0043860
        k(   46) = (   0.4411765   0.0000000   0.4411765), wk =   0.0043860
        k(   47) = (   0.4509804  -0.0000000   0.4509804), wk =   0.0043860
        k(   48) = (   0.4607843  -0.0000000   0.4607843), wk =   0.0043860
        k(   49) = (   0.4705882   0.0000000   0.4705882), wk =   0.0043860
        k(   50) = (   0.4803922   0.0000000   0.4803922), wk =   0.0043860
        k(   51) = (   0.4901961   0.0000000   0.4901961), wk =   0.0043860
        k(   52) = (   0.5000000   0.0000000   0.5000000), wk =   0.0043860
        k(   53) = (   0.5073529   0.0147059   0.5073529), wk =   0.0043860
        k(   54) = (   0.5147059   0.0294118   0.5147059), wk =   0.0043860
        k(   55) = (   0.5220588   0.0441176   0.5220588), wk =   0.0043860
        k(   56) = (   0.5294118   0.0588235   0.5294118), wk =   0.0043860
        k(   57) = (   0.5367647   0.0735294   0.5367647), wk =   0.0043860
        k(   58) = (   0.5441176   0.0882353   0.5441176), wk =   0.0043860
        k(   59) = (   0.5514706   0.1029412   0.5514706), wk =   0.0043860
        k(   60) = (   0.5588235   0.1176471   0.5588235), wk =   0.0043860
        k(   61) = (   0.5661765   0.1323529   0.5661765), wk =   0.0043860
        k(   62) = (   0.5735294   0.1470588   0.5735294), wk =   0.0043860
        k(   63) = (   0.5808824   0.1617647   0.5808824), wk =   0.0043860
        k(   64) = (   0.5882353   0.1764706   0.5882353), wk =   0.0043860
        k(   65) = (   0.5955882   0.1911765   0.5955882), wk =   0.0043860
        k(   66) = (   0.6029412   0.2058824   0.6029412), wk =   0.0043860
        k(   67) = (   0.6102941   0.2205882   0.6102941), wk =   0.0043860
        k(   68) = (   0.6176471   0.2352941   0.6176471), wk =   0.0043860
        k(   69) = (   0.6250000   0.2500000   0.6250000), wk =   0.0043860
        k(   70) = (   0.3750000   0.3750000   0.7500000), wk =   0.0043860
        k(   71) = (   0.3680556   0.3680556   0.7361111), wk =   0.0043860
        k(   72) = (   0.3611111   0.3611111   0.7222222), wk =   0.0043860
        k(   73) = (   0.3541667   0.3541667   0.7083333), wk =   0.0043860
        k(   74) = (   0.3472222   0.3472222   0.6944444), wk =   0.0043860
        k(   75) = (   0.3402778   0.3402778   0.6805556), wk =   0.0043860
        k(   76) = (   0.3333333   0.3333333   0.6666667), wk =   0.0043860
        k(   77) = (   0.3263889   0.3263889   0.6527778), wk =   0.0043860
        k(   78) = (   0.3194444   0.3194444   0.6388889), wk =   0.0043860
        k(   79) = (   0.3125000   0.3125000   0.6250000), wk =   0.0043860
        k(   80) = (   0.3055556   0.3055556   0.6111111), wk =   0.0043860
        k(   81) = (   0.2986111   0.2986111   0.5972222), wk =   0.0043860
        k(   82) = (   0.2916667   0.2916667   0.5833333), wk =   0.0043860
        k(   83) = (   0.2847222   0.2847222   0.5694444), wk =   0.0043860
        k(   84) = (   0.2777778   0.2777778   0.5555556), wk =   0.0043860
        k(   85) = (   0.2708333   0.2708333   0.5416667), wk =   0.0043860
        k(   86) = (   0.2638889   0.2638889   0.5277778), wk =   0.0043860
        k(   87) = (   0.2569444   0.2569444   0.5138889), wk =   0.0043860
        k(   88) = (   0.2500000   0.2500000   0.5000000), wk =   0.0043860
        k(   89) = (   0.2430556   0.2430556   0.4861111), wk =   0.0043860
        k(   90) = (   0.2361111   0.2361111   0.4722222), wk =   0.0043860
        k(   91) = (   0.2291667   0.2291667   0.4583333), wk =   0.0043860
        k(   92) = (   0.2222222   0.2222222   0.4444444), wk =   0.0043860
        k(   93) = (   0.2152778   0.2152778   0.4305556), wk =   0.0043860
        k(   94) = (   0.2083333   0.2083333   0.4166667), wk =   0.0043860
        k(   95) = (   0.2013889   0.2013889   0.4027778), wk =   0.0043860
        k(   96) = (   0.1944444   0.1944444   0.3888889), wk =   0.0043860
        k(   97) = (   0.1875000   0.1875000   0.3750000), wk =   0.0043860
        k(   98) = (   0.1805556   0.1805556   0.3611111), wk =   0.0043860
        k(   99) = (   0.1736111   0.1736111   0.3472222), wk =   0.0043860
        k(  100) = (   0.1666667   0.1666667   0.3333333), wk =   0.0043860
        k(  101) = (   0.1597222   0.1597222   0.3194444), wk =   0.0043860
        k(  102) = (   0.1527778   0.1527778   0.3055556), wk =   0.0043860
        k(  103) = (   0.1458333   0.1458333   0.2916667), wk =   0.0043860
        k(  104) = (   0.1388889   0.1388889   0.2777778), wk =   0.0043860
        k(  105) = (   0.1319444   0.1319444   0.2638889), wk =   0.0043860
        k(  106) = (   0.1250000   0.1250000   0.2500000), wk =   0.0043860
        k(  107) = (   0.1180556   0.1180556   0.2361111), wk =   0.0043860
        k(  108) = (   0.1111111   0.1111111   0.2222222), wk =   0.0043860
        k(  109) = (   0.1041667   0.1041667   0.2083333), wk =   0.0043860
        k(  110) = (   0.0972222   0.0972222   0.1944444), wk =   0.0043860
        k(  111) = (   0.0902778   0.0902778   0.1805556), wk =   0.0043860
        k(  112) = (   0.0833333   0.0833333   0.1666667), wk =   0.0043860
        k(  113) = (   0.0763889   0.0763889   0.1527778), wk =   0.0043860
        k(  114) = (   0.0694444   0.0694444   0.1388889), wk =   0.0043860
        k(  115) = (   0.0625000   0.0625000   0.1250000), wk =   0.0043860
        k(  116) = (   0.0555556   0.0555556   0.1111111), wk =   0.0043860
        k(  117) = (   0.0486111   0.0486111   0.0972222), wk =   0.0043860
        k(  118) = (   0.0416667   0.0416667   0.0833333), wk =   0.0043860
        k(  119) = (   0.0347222   0.0347222   0.0694444), wk =   0.0043860
        k(  120) = (   0.0277778   0.0277778   0.0555556), wk =   0.0043860
        k(  121) = (   0.0208333   0.0208333   0.0416667), wk =   0.0043860
        k(  122) = (   0.0138889   0.0138889   0.0277778), wk =   0.0043860
        k(  123) = (   0.0069444   0.0069444   0.0138889), wk =   0.0043860
        k(  124) = (   0.0000000   0.0000000   0.0000000), wk =   0.0043860
        k(  125) = (   0.0113636   0.0113636   0.0113636), wk =   0.0043860
        k(  126) = (   0.0227273   0.0227273   0.0227273), wk =   0.0043860
        k(  127) = (   0.0340909   0.0340909   0.0340909), wk =   0.0043860
        k(  128) = (   0.0454545   0.0454545   0.0454545), wk =   0.0043860
        k(  129) = (   0.0568182   0.0568182   0.0568182), wk =   0.0043860
        k(  130) = (   0.0681818   0.0681818   0.0681818), wk =   0.0043860
        k(  131) = (   0.0795455   0.0795455   0.0795455), wk =   0.0043860
        k(  132) = (   0.0909091   0.0909091   0.0909091), wk =   0.0043860
        k(  133) = (   0.1022727   0.1022727   0.1022727), wk =   0.0043860
        k(  134) = (   0.1136364   0.1136364   0.1136364), wk =   0.0043860
        k(  135) = (   0.1250000   0.1250000   0.1250000), wk =   0.0043860
        k(  136) = (   0.1363636   0.1363636   0.1363636), wk =   0.0043860
        k(  137) = (   0.1477273   0.1477273   0.1477273), wk =   0.0043860
        k(  138) = (   0.1590909   0.1590909   0.1590909), wk =   0.0043860
        k(  139) = (   0.1704545   0.1704545   0.1704545), wk =   0.0043860
        k(  140) = (   0.1818182   0.1818182   0.1818182), wk =   0.0043860
        k(  141) = (   0.1931818   0.1931818   0.1931818), wk =   0.0043860
        k(  142) = (   0.2045455   0.2045455   0.2045455), wk =   0.0043860
        k(  143) = (   0.2159091   0.2159091   0.2159091), wk =   0.0043860
        k(  144) = (   0.2272727   0.2272727   0.2272727), wk =   0.0043860
        k(  145) = (   0.2386364   0.2386364   0.2386364), wk =   0.0043860
        k(  146) = (   0.2500000   0.2500000   0.2500000), wk =   0.0043860
        k(  147) = (   0.2613636   0.2613636   0.2613636), wk =   0.0043860
        k(  148) = (   0.2727273   0.2727273   0.2727273), wk =   0.0043860
        k(  149) = (   0.2840909   0.2840909   0.2840909), wk =   0.0043860
        k(  150) = (   0.2954545   0.2954545   0.2954545), wk =   0.0043860
        k(  151) = (   0.3068182   0.3068182   0.3068182), wk =   0.0043860
        k(  152) = (   0.3181818   0.3181818   0.3181818), wk =   0.0043860
        k(  153) = (   0.3295455   0.3295455   0.3295455), wk =   0.0043860
        k(  154) = (   0.3409091   0.3409091   0.3409091), wk =   0.0043860
        k(  155) = (   0.3522727   0.3522727   0.3522727), wk =   0.0043860
        k(  156) = (   0.3636364   0.3636364   0.3636364), wk =   0.0043860
        k(  157) = (   0.3750000   0.3750000   0.3750000), wk =   0.0043860
        k(  158) = (   0.3863636   0.3863636   0.3863636), wk =   0.0043860
        k(  159) = (   0.3977273   0.3977273   0.3977273), wk =   0.0043860
        k(  160) = (   0.4090909   0.4090909   0.4090909), wk =   0.0043860
        k(  161) = (   0.4204545   0.4204545   0.4204545), wk =   0.0043860
        k(  162) = (   0.4318182   0.4318182   0.4318182), wk =   0.0043860
        k(  163) = (   0.4431818   0.4431818   0.4431818), wk =   0.0043860
        k(  164) = (   0.4545455   0.4545455   0.4545455), wk =   0.0043860
        k(  165) = (   0.4659091   0.4659091   0.4659091), wk =   0.0043860
        k(  166) = (   0.4772727   0.4772727   0.4772727), wk =   0.0043860
        k(  167) = (   0.4886364   0.4886364   0.4886364), wk =   0.0043860
        k(  168) = (   0.5000000   0.5000000   0.5000000), wk =   0.0043860
        k(  169) = (   0.5000000   0.4928571   0.5071429), wk =   0.0043860
        k(  170) = (   0.5000000   0.4857143   0.5142857), wk =   0.0043860
        k(  171) = (   0.5000000   0.4785714   0.5214286), wk =   0.0043860
        k(  172) = (   0.5000000   0.4714286   0.5285714), wk =   0.0043860
        k(  173) = (   0.5000000   0.4642857   0.5357143), wk =   0.0043860
        k(  174) = (   0.5000000   0.4571429   0.5428571), wk =   0.0043860
        k(  175) = (   0.5000000   0.4500000   0.5500000), wk =   0.0043860
        k(  176) = (   0.5000000   0.4428571   0.5571429), wk =   0.0043860
        k(  177) = (   0.5000000   0.4357143   0.5642857), wk =   0.0043860
        k(  178) = (   0.5000000   0.4285714   0.5714286), wk =   0.0043860
        k(  179) = (   0.5000000   0.4214286   0.5785714), wk =   0.0043860
        k(  180) = (   0.5000000   0.4142857   0.5857143), wk =   0.0043860
        k(  181) = (   0.5000000   0.4071429   0.5928571), wk =   0.0043860
        k(  182) = (   0.5000000   0.4000000   0.6000000), wk =   0.0043860
        k(  183) = (   0.5000000   0.3928571   0.6071429), wk =   0.0043860
        k(  184) = (   0.5000000   0.3857143   0.6142857), wk =   0.0043860
        k(  185) = (   0.5000000   0.3785714   0.6214286), wk =   0.0043860
        k(  186) = (   0.5000000   0.3714286   0.6285714), wk =   0.0043860
        k(  187) = (   0.5000000   0.3642857   0.6357143), wk =   0.0043860
        k(  188) = (   0.5000000   0.3571429   0.6428571), wk =   0.0043860
        k(  189) = (   0.5000000   0.3500000   0.6500000), wk =   0.0043860
        k(  190) = (   0.5000000   0.3428571   0.6571429), wk =   0.0043860
        k(  191) = (   0.5000000   0.3357143   0.6642857), wk =   0.0043860
        k(  192) = (   0.5000000   0.3285714   0.6714286), wk =   0.0043860
        k(  193) = (   0.5000000   0.3214286   0.6785714), wk =   0.0043860
        k(  194) = (   0.5000000   0.3142857   0.6857143), wk =   0.0043860
        k(  195) = (   0.5000000   0.3071429   0.6928571), wk =   0.0043860
        k(  196) = (   0.5000000   0.3000000   0.7000000), wk =   0.0043860
        k(  197) = (   0.5000000   0.2928571   0.7071429), wk =   0.0043860
        k(  198) = (   0.5000000   0.2857143   0.7142857), wk =   0.0043860
        k(  199) = (   0.5000000   0.2785714   0.7214286), wk =   0.0043860
        k(  200) = (   0.5000000   0.2714286   0.7285714), wk =   0.0043860
        k(  201) = (   0.5000000   0.2642857   0.7357143), wk =   0.0043860
        k(  202) = (   0.5000000   0.2571429   0.7428571), wk =   0.0043860
        k(  203) = (   0.5000000   0.2500000   0.7500000), wk =   0.0043860
        k(  204) = (   0.5000000   0.2400000   0.7400000), wk =   0.0043860
        k(  205) = (   0.5000000   0.2300000   0.7300000), wk =   0.0043860
        k(  206) = (   0.5000000   0.2200000   0.7200000), wk =   0.0043860
        k(  207) = (   0.5000000   0.2100000   0.7100000), wk =   0.0043860
        k(  208) = (   0.5000000   0.2000000   0.7000000), wk =   0.0043860
        k(  209) = (   0.5000000   0.1900000   0.6900000), wk =   0.0043860
        k(  210) = (   0.5000000   0.1800000   0.6800000), wk =   0.0043860
        k(  211) = (   0.5000000   0.1700000   0.6700000), wk =   0.0043860
        k(  212) = (   0.5000000   0.1600000   0.6600000), wk =   0.0043860
        k(  213) = (   0.5000000   0.1500000   0.6500000), wk =   0.0043860
        k(  214) = (   0.5000000   0.1400000   0.6400000), wk =   0.0043860
        k(  215) = (   0.5000000   0.1300000   0.6300000), wk =   0.0043860
        k(  216) = (   0.5000000   0.1200000   0.6200000), wk =   0.0043860
        k(  217) = (   0.5000000   0.1100000   0.6100000), wk =   0.0043860
        k(  218) = (   0.5000000   0.1000000   0.6000000), wk =   0.0043860
        k(  219) = (   0.5000000   0.0900000   0.5900000), wk =   0.0043860
        k(  220) = (   0.5000000   0.0800000   0.5800000), wk =   0.0043860
        k(  221) = (   0.5000000   0.0700000   0.5700000), wk =   0.0043860
        k(  222) = (   0.5000000   0.0600000   0.5600000), wk =   0.0043860
        k(  223) = (   0.5000000   0.0500000   0.5500000), wk =   0.0043860
        k(  224) = (   0.5000000   0.0400000   0.5400000), wk =   0.0043860
        k(  225) = (   0.5000000   0.0300000   0.5300000), wk =   0.0043860
        k(  226) = (   0.5000000   0.0200000   0.5200000), wk =   0.0043860
        k(  227) = (   0.5000000   0.0100000   0.5100000), wk =   0.0043860
        k(  228) = (   0.5000000   0.0000000   0.5000000), wk =   0.0043860
        k(  229) = (   0.0000000   0.0000000   0.0000000), wk =   0.0043860
        k(  230) = (  -0.0098039   0.0000000  -0.0098039), wk =   0.0043860
        k(  231) = (  -0.0196078  -0.0000000  -0.0196078), wk =   0.0043860
        k(  232) = (  -0.0294118   0.0000000  -0.0294118), wk =   0.0043860
        k(  233) = (  -0.0392157  -0.0000000  -0.0392157), wk =   0.0043860
        k(  234) = (  -0.0490196  -0.0000000  -0.0490196), wk =   0.0043860
        k(  235) = (  -0.0588235   0.0000000  -0.0588235), wk =   0.0043860
        k(  236) = (  -0.0686275  -0.0000000  -0.0686275), wk =   0.0043860
        k(  237) = (  -0.0784314   0.0000000  -0.0784314), wk =   0.0043860
        k(  238) = (  -0.0882353   0.0000000  -0.0882353), wk =   0.0043860
        k(  239) = (  -0.0980392  -0.0000000  -0.0980392), wk =   0.0043860
        k(  240) = (  -0.1078431   0.0000000  -0.1078431), wk =   0.0043860
        k(  241) = (  -0.1176471   0.0000000  -0.1176471), wk =   0.0043860
        k(  242) = (  -0.1274510   0.0000000  -0.1274510), wk =   0.0043860
        k(  243) = (  -0.1372549  -0.0000000  -0.1372549), wk =   0.0043860
        k(  244) = (  -0.1470588   0.0000000  -0.1470588), wk =   0.0043860
        k(  245) = (  -0.1568627   0.0000000  -0.1568627), wk =   0.0043860
        k(  246) = (  -0.1666667   0.0000000  -0.1666667), wk =   0.0043860
        k(  247) = (  -0.1764706   0.0000000  -0.1764706), wk =   0.0043860
        k(  248) = (  -0.1862745  -0.0000000  -0.1862745), wk =   0.0043860
        k(  249) = (  -0.1960784  -0.0000000  -0.1960784), wk =   0.0043860
        k(  250) = (  -0.2058824  -0.0000000  -0.2058824), wk =   0.0043860
        k(  251) = (  -0.2156863   0.0000000  -0.2156863), wk =   0.0043860
        k(  252) = (  -0.2254902   0.0000000  -0.2254902), wk =   0.0043860
        k(  253) = (  -0.2352941   0.0000000  -0.2352941), wk =   0.0043860
        k(  254) = (  -0.2450980  -0.0000000  -0.2450980), wk =   0.0043860
        k(  255) = (  -0.2549020   0.0000000  -0.2549020), wk =   0.0043860
        k(  256) = (  -0.2647059   0.0000000  -0.2647059), wk =   0.0043860
        k(  257) = (  -0.2745098  -0.0000000  -0.2745098), wk =   0.0043860
        k(  258) = (  -0.2843137  -0.0000000  -0.2843137), wk =   0.0043860
        k(  259) = (  -0.2941176   0.0000000  -0.2941176), wk =   0.0043860
        k(  260) = (  -0.3039216   0.0000000  -0.3039216), wk =   0.0043860
        k(  261) = (  -0.3137255   0.0000000  -0.3137255), wk =   0.0043860
        k(  262) = (  -0.3235294  -0.0000000  -0.3235294), wk =   0.0043860
        k(  263) = (  -0.3333333  -0.0000000  -0.3333333), wk =   0.0043860
        k(  264) = (  -0.3431373   0.0000000  -0.3431373), wk =   0.0043860
        k(  265) = (  -0.3529412  -0.0000000  -0.3529412), wk =   0.0043860
        k(  266) = (  -0.3627451   0.0000000  -0.3627451), wk =   0.0043860
        k(  267) = (  -0.3725490  -0.0000000  -0.3725490), wk =   0.0043860
        k(  268) = (  -0.3823529  -0.0000000  -0.3823529), wk =   0.0043860
        k(  269) = (  -0.3921569   0.0000000  -0.3921569), wk =   0.0043860
        k(  270) = (  -0.4019608  -0.0000000  -0.4019608), wk =   0.0043860
        k(  271) = (  -0.4117647  -0.0000000  -0.4117647), wk =   0.0043860
        k(  272) = (  -0.4215686  -0.0000000  -0.4215686), wk =   0.0043860
        k(  273) = (  -0.4313725   0.0000000  -0.4313725), wk =   0.0043860
        k(  274) = (  -0.4411765  -0.0000000  -0.4411765), wk =   0.0043860
        k(  275) = (  -0.4509804   0.0000000  -0.4509804), wk =   0.0043860
        k(  276) = (  -0.4607843   0.0000000  -0.4607843), wk =   0.0043860
        k(  277) = (  -0.4705882  -0.0000000  -0.4705882), wk =   0.0043860
        k(  278) = (  -0.4803922  -0.0000000  -0.4803922), wk =   0.0043860
        k(  279) = (  -0.4901961  -0.0000000  -0.4901961), wk =   0.0043860
        k(  280) = (  -0.5000000   0.0000000  -0.5000000), wk =   0.0043860
        k(  281) = (  -0.5073529  -0.0147059  -0.5073529), wk =   0.0043860
        k(  282) = (  -0.5147059  -0.0294118  -0.5147059), wk =   0.0043860
        k(  283) = (  -0.5220588  -0.0441176  -0.5220588), wk =   0.0043860
        k(  284) = (  -0.5294118  -0.0588235  -0.5294118), wk =   0.0043860
        k(  285) = (  -0.5367647  -0.0735294  -0.5367647), wk =   0.0043860
        k(  286) = (  -0.5441176  -0.0882353  -0.5441176), wk =   0.0043860
        k(  287) = (  -0.5514706  -0.1029412  -0.5514706), wk =   0.0043860
        k(  288) = (  -0.5588235  -0.1176471  -0.5588235), wk =   0.0043860
        k(  289) = (  -0.5661765  -0.1323529  -0.5661765), wk =   0.0043860
        k(  290) = (  -0.5735294  -0.1470588  -0.5735294), wk =   0.0043860
        k(  291) = (  -0.5808824  -0.1617647  -0.5808824), wk =   0.0043860
        k(  292) = (  -0.5882353  -0.1764706  -0.5882353), wk =   0.0043860
        k(  293) = (  -0.5955882  -0.1911765  -0.5955882), wk =   0.0043860
        k(  294) = (  -0.6029412  -0.2058824  -0.6029412), wk =   0.0043860
        k(  295) = (  -0.6102941  -0.2205882  -0.6102941), wk =   0.0043860
        k(  296) = (  -0.6176471  -0.2352941  -0.6176471), wk =   0.0043860
        k(  297) = (  -0.6250000  -0.2500000  -0.6250000), wk =   0.0043860
        k(  298) = (  -0.3750000  -0.3750000  -0.7500000), wk =   0.0043860
        k(  299) = (  -0.3680556  -0.3680556  -0.7361111), wk =   0.0043860
        k(  300) = (  -0.3611111  -0.3611111  -0.7222222), wk =   0.0043860
        k(  301) = (  -0.3541667  -0.3541667  -0.7083333), wk =   0.0043860
        k(  302) = (  -0.3472222  -0.3472222  -0.6944444), wk =   0.0043860
        k(  303) = (  -0.3402778  -0.3402778  -0.6805556), wk =   0.0043860
        k(  304) = (  -0.3333333  -0.3333333  -0.6666667), wk =   0.0043860
        k(  305) = (  -0.3263889  -0.3263889  -0.6527778), wk =   0.0043860
        k(  306) = (  -0.3194444  -0.3194444  -0.6388889), wk =   0.0043860
        k(  307) = (  -0.3125000  -0.3125000  -0.6250000), wk =   0.0043860
        k(  308) = (  -0.3055556  -0.3055556  -0.6111111), wk =   0.0043860
        k(  309) = (  -0.2986111  -0.2986111  -0.5972222), wk =   0.0043860
        k(  310) = (  -0.2916667  -0.2916667  -0.5833333), wk =   0.0043860
        k(  311) = (  -0.2847222  -0.2847222  -0.5694444), wk =   0.0043860
        k(  312) = (  -0.2777778  -0.2777778  -0.5555556), wk =   0.0043860
        k(  313) = (  -0.2708333  -0.2708333  -0.5416667), wk =   0.0043860
        k(  314) = (  -0.2638889  -0.2638889  -0.5277778), wk =   0.0043860
        k(  315) = (  -0.2569444  -0.2569444  -0.5138889), wk =   0.0043860
        k(  316) = (  -0.2500000  -0.2500000  -0.5000000), wk =   0.0043860
        k(  317) = (  -0.2430556  -0.2430556  -0.4861111), wk =   0.0043860
        k(  318) = (  -0.2361111  -0.2361111  -0.4722222), wk =   0.0043860
        k(  319) = (  -0.2291667  -0.2291667  -0.4583333), wk =   0.0043860
        k(  320) = (  -0.2222222  -0.2222222  -0.4444444), wk =   0.0043860
        k(  321) = (  -0.2152778  -0.2152778  -0.4305556), wk =   0.0043860
        k(  322) = (  -0.2083333  -0.2083333  -0.4166667), wk =   0.0043860
        k(  323) = (  -0.2013889  -0.2013889  -0.4027778), wk =   0.0043860
        k(  324) = (  -0.1944444  -0.1944444  -0.3888889), wk =   0.0043860
        k(  325) = (  -0.1875000  -0.1875000  -0.3750000), wk =   0.0043860
        k(  326) = (  -0.1805556  -0.1805556  -0.3611111), wk =   0.0043860
        k(  327) = (  -0.1736111  -0.1736111  -0.3472222), wk =   0.0043860
        k(  328) = (  -0.1666667  -0.1666667  -0.3333333), wk =   0.0043860
        k(  329) = (  -0.1597222  -0.1597222  -0.3194444), wk =   0.0043860
        k(  330) = (  -0.1527778  -0.1527778  -0.3055556), wk =   0.0043860
        k(  331) = (  -0.1458333  -0.1458333  -0.2916667), wk =   0.0043860
        k(  332) = (  -0.1388889  -0.1388889  -0.2777778), wk =   0.0043860
        k(  333) = (  -0.1319444  -0.1319444  -0.2638889), wk =   0.0043860
        k(  334) = (  -0.1250000  -0.1250000  -0.2500000), wk =   0.0043860
        k(  335) = (  -0.1180556  -0.1180556  -0.2361111), wk =   0.0043860
        k(  336) = (  -0.1111111  -0.1111111  -0.2222222), wk =   0.0043860
        k(  337) = (  -0.1041667  -0.1041667  -0.2083333), wk =   0.0043860
        k(  338) = (  -0.0972222  -0.0972222  -0.1944444), wk =   0.0043860
        k(  339) = (  -0.0902778  -0.0902778  -0.1805556), wk =   0.0043860
        k(  340) = (  -0.0833333  -0.0833333  -0.1666667), wk =   0.0043860
        k(  341) = (  -0.0763889  -0.0763889  -0.1527778), wk =   0.0043860
        k(  342) = (  -0.0694444  -0.0694444  -0.1388889), wk =   0.0043860
        k(  343) = (  -0.0625000  -0.0625000  -0.1250000), wk =   0.0043860
        k(  344) = (  -0.0555556  -0.0555556  -0.1111111), wk =   0.0043860
        k(  345) = (  -0.0486111  -0.0486111  -0.0972222), wk =   0.0043860
        k(  346) = (  -0.0416667  -0.0416667  -0.0833333), wk =   0.0043860
        k(  347) = (  -0.0347222  -0.0347222  -0.0694444), wk =   0.0043860
        k(  348) = (  -0.0277778  -0.0277778  -0.0555556), wk =   0.0043860
        k(  349) = (  -0.0208333  -0.0208333  -0.0416667), wk =   0.0043860
        k(  350) = (  -0.0138889  -0.0138889  -0.0277778), wk =   0.0043860
        k(  351) = (  -0.0069444  -0.0069444  -0.0138889), wk =   0.0043860
        k(  352) = (   0.0000000   0.0000000   0.0000000), wk =   0.0043860
        k(  353) = (  -0.0113636  -0.0113636  -0.0113636), wk =   0.0043860
        k(  354) = (  -0.0227273  -0.0227273  -0.0227273), wk =   0.0043860
        k(  355) = (  -0.0340909  -0.0340909  -0.0340909), wk =   0.0043860
        k(  356) = (  -0.0454545  -0.0454545  -0.0454545), wk =   0.0043860
        k(  357) = (  -0.0568182  -0.0568182  -0.0568182), wk =   0.0043860
        k(  358) = (  -0.0681818  -0.0681818  -0.0681818), wk =   0.0043860
        k(  359) = (  -0.0795455  -0.0795455  -0.0795455), wk =   0.0043860
        k(  360) = (  -0.0909091  -0.0909091  -0.0909091), wk =   0.0043860
        k(  361) = (  -0.1022727  -0.1022727  -0.1022727), wk =   0.0043860
        k(  362) = (  -0.1136364  -0.1136364  -0.1136364), wk =   0.0043860
        k(  363) = (  -0.1250000  -0.1250000  -0.1250000), wk =   0.0043860
        k(  364) = (  -0.1363636  -0.1363636  -0.1363636), wk =   0.0043860
        k(  365) = (  -0.1477273  -0.1477273  -0.1477273), wk =   0.0043860
        k(  366) = (  -0.1590909  -0.1590909  -0.1590909), wk =   0.0043860
        k(  367) = (  -0.1704545  -0.1704545  -0.1704545), wk =   0.0043860
        k(  368) = (  -0.1818182  -0.1818182  -0.1818182), wk =   0.0043860
        k(  369) = (  -0.1931818  -0.1931818  -0.1931818), wk =   0.0043860
        k(  370) = (  -0.2045455  -0.2045455  -0.2045455), wk =   0.0043860
        k(  371) = (  -0.2159091  -0.2159091  -0.2159091), wk =   0.0043860
        k(  372) = (  -0.2272727  -0.2272727  -0.2272727), wk =   0.0043860
        k(  373) = (  -0.2386364  -0.2386364  -0.2386364), wk =   0.0043860
        k(  374) = (  -0.2500000  -0.2500000  -0.2500000), wk =   0.0043860
        k(  375) = (  -0.2613636  -0.2613636  -0.2613636), wk =   0.0043860
        k(  376) = (  -0.2727273  -0.2727273  -0.2727273), wk =   0.0043860
        k(  377) = (  -0.2840909  -0.2840909  -0.2840909), wk =   0.0043860
        k(  378) = (  -0.2954545  -0.2954545  -0.2954545), wk =   0.0043860
        k(  379) = (  -0.3068182  -0.3068182  -0.3068182), wk =   0.0043860
        k(  380) = (  -0.3181818  -0.3181818  -0.3181818), wk =   0.0043860
        k(  381) = (  -0.3295455  -0.3295455  -0.3295455), wk =   0.0043860
        k(  382) = (  -0.3409091  -0.3409091  -0.3409091), wk =   0.0043860
        k(  383) = (  -0.3522727  -0.3522727  -0.3522727), wk =   0.0043860
        k(  384) = (  -0.3636364  -0.3636364  -0.3636364), wk =   0.0043860
        k(  385) = (  -0.3750000  -0.3750000  -0.3750000), wk =   0.0043860
        k(  386) = (  -0.3863636  -0.3863636  -0.3863636), wk =   0.0043860
        k(  387) = (  -0.3977273  -0.3977273  -0.3977273), wk =   0.0043860
        k(  388) = (  -0.4090909  -0.4090909  -0.4090909), wk =   0.0043860
        k(  389) = (  -0.4204545  -0.4204545  -0.4204545), wk =   0.0043860
        k(  390) = (  -0.4318182  -0.4318182  -0.4318182), wk =   0.0043860
        k(  391) = (  -0.4431818  -0.4431818  -0.4431818), wk =   0.0043860
        k(  392) = (  -0.4545455  -0.4545455  -0.4545455), wk =   0.0043860
        k(  393) = (  -0.4659091  -0.4659091  -0.4659091), wk =   0.0043860
        k(  394) = (  -0.4772727  -0.4772727  -0.4772727), wk =   0.0043860
        k(  395) = (  -0.4886364  -0.4886364  -0.4886364), wk =   0.0043860
        k(  396) = (  -0.5000000  -0.5000000  -0.5000000), wk =   0.0043860
        k(  397) = (  -0.5000000  -0.4928571  -0.5071429), wk =   0.0043860
        k(  398) = (  -0.5000000  -0.4857143  -0.5142857), wk =   0.0043860
        k(  399) = (  -0.5000000  -0.4785714  -0.5214286), wk =   0.0043860
        k(  400) = (  -0.5000000  -0.4714286  -0.5285714), wk =   0.0043860
        k(  401) = (  -0.5000000  -0.4642857  -0.5357143), wk =   0.0043860
        k(  402) = (  -0.5000000  -0.4571429  -0.5428571), wk =   0.0043860
        k(  403) = (  -0.5000000  -0.4500000  -0.5500000), wk =   0.0043860
        k(  404) = (  -0.5000000  -0.4428571  -0.5571429), wk =   0.0043860
[...]
     1.0000   0.0000   0.0000   0.0000   0.0000

          k =-0.1038-0.1601-0.0474 (  1488 PWs)   bands (ev):

   -24.9445 -24.9378 -24.9351 -24.9278 -24.9171  -0.6711   3.0510   6.3894
     7.9301  15.1409  15.8890  18.6604  20.0395

     occupation numbers 
     1.0000   1.0000   1.0000   1.0000   1.0000   1.0000   1.0000   1.0000
     1.0000   0.0000   0.0000   0.0000   0.0000

          k =-0.1038-0.1630-0.0445 (  1490 PWs)   bands (ev):

   -24.9513 -24.9404 -24.9377 -24.9252 -24.9173  -0.6090   3.0948   6.2340
     7.7978  15.2041  15.9636  18.6991  20.0772

     occupation numbers 
     1.0000   1.0000   1.0000   1.0000   1.0000   1.0000   1.0000   1.0000
     1.0000   0.0000   0.0000   0.0000   0.0000

          k =-0.1038-0.1660-0.0415 (  1492 PWs)   bands (ev):

   -24.9482 -24.9444 -24.9432 -24.9261 -24.9210  -0.5457   3.1362   6.0901
     7.6637  15.2696  16.0444  18.6792  20.0846

     occupation numbers 
     1.0000   1.0000   1.0000   1.0000   1.0000   1.0000   1.0000   1.0000
     1.0000   0.0000   0.0000   0.0000   0.0000

          k =-0.1038-0.1690-0.0385 (  1492 PWs)   bands (ev):

   -24.9477 -24.9450 -24.9434 -24.9259 -24.9203  -0.4817   3.1741   5.9593
     7.5282  15.3392  16.1309  18.6161  20.0170

     occupation numbers 
     1.0000   1.0000   1.0000   1.0000   1.0000   1.0000   1.0000   1.0000
     1.0000   0.0000   0.0000   0.0000   0.0000

          k =-0.1038-0.1719-0.0356 (  1492 PWs)   bands (ev):

   -24.9464 -24.9444 -24.9429 -24.9254 -24.9223  -0.4173   3.2073   5.8433
     7.3919  15.4127  16.2222  18.5245  19.8893

     occupation numbers 
     1.0000   1.0000   1.0000   1.0000   1.0000   1.0000   1.0000   1.0000
     1.0000   0.0000   0.0000   0.0000   0.0000

          k =-0.1038-0.1749-0.0326 (  1492 PWs)   bands (ev):

   -24.9469 -24.9443 -24.9425 -24.9250 -24.9217  -0.3533   3.2348   5.7438
     7.2555  15.4908  16.3181  18.4151  19.7287

     occupation numbers 
     1.0000   1.0000   1.0000   1.0000   1.0000   1.0000   1.0000   1.0000
     1.0000   0.0000   0.0000   0.0000   0.0000

          k =-0.1038-0.1779-0.0296 (  1492 PWs)   bands (ev):

   -24.9438 -24.9420 -24.9400 -24.9269 -24.9261  -0.2902   3.2556   5.6623
     7.1195  15.5732  16.4173  18.2953  19.5553

     occupation numbers 
     1.0000   1.0000   1.0000   1.0000   1.0000   1.0000   1.0000   1.0000
     1.0000   0.0000   0.0000   0.0000   0.0000

          k =-0.1038-0.1808-0.0267 (  1492 PWs)   bands (ev):

   -24.9436 -24.9416 -24.9402 -24.9263 -24.9255  -0.2289   3.2690   5.6000
     6.9847  15.6600  16.5201  18.1703  19.3764

     occupation numbers 
     1.0000   1.0000   1.0000   1.0000   1.0000   1.0000   1.0000   1.0000
     1.0000   0.0000   0.0000   0.0000   0.0000

          k =-0.1038-0.1838-0.0237 (  1484 PWs)   bands (ev):

   -24.9377 -24.9310 -24.9261 -24.9189 -24.9158  -0.1700   3.2752   5.5579
     6.8522  15.7525  16.6257  18.0456  19.1968

     occupation numbers 
     1.0000   1.0000   1.0000   1.0000   1.0000   1.0000   1.0000   1.0000
     1.0000   0.0000   0.0000   0.0000   0.0000

          k =-0.1038-0.1868-0.0208 (  1482 PWs)   bands (ev):

   -24.9373 -24.9264 -24.9231 -24.9158 -24.9143  -0.1146   3.2741   5.5356
     6.7219  15.8470  16.7304  17.9230  19.0187

     occupation numbers 
     1.0000   1.0000   1.0000   1.0000   1.0000   1.0000   1.0000   1.0000
     1.0000   0.0000   0.0000   0.0000   0.0000

          k =-0.1038-0.1897-0.0178 (  1480 PWs)   bands (ev):

   -24.9294 -24.9275 -24.9204 -24.9162 -24.9103  -0.0637   3.2674   5.5326
     6.5950  15.9443  16.8309  17.8100  18.8448

     occupation numbers 
     1.0000   1.0000   1.0000   1.0000   1.0000   1.0000   1.0000   1.0000
     1.0000   0.0000   0.0000   0.0000   0.0000

          k =-0.1038-0.1927-0.0148 (  1484 PWs)   bands (ev):

   -24.9341 -24.9295 -24.9240 -24.9206 -24.9173  -0.0182   3.2564   5.5473
     6.4726  16.0408  16.9205  17.7128  18.6735

     occupation numbers 
     1.0000   1.0000   1.0000   1.0000   1.0000   1.0000   1.0000   1.0000
     1.0000   0.0000   0.0000   0.0000   0.0000

          k =-0.1038-0.1956-0.0119 (  1482 PWs)   bands (ev):

   -24.9323 -24.9286 -24.9214 -24.9172 -24.9130   0.0208   3.2433   5.5777
     6.3563  16.1383  16.9879  17.6485  18.5079

     occupation numbers 
     1.0000   1.0000   1.0000   1.0000   1.0000   1.0000   1.0000   1.0000
     1.0000   0.0000   0.0000   0.0000   0.0000

          k =-0.1038-0.1986-0.0089 (  1476 PWs)   bands (ev):

   -24.9281 -24.9184 -24.9152 -24.9118 -24.9034   0.0524   3.2306   5.6204
     6.2484  16.2316  17.0166  17.6357  18.3502

     occupation numbers 
     1.0000   1.0000   1.0000   1.0000   1.0000   1.0000   1.0000   1.0000
     1.0000   0.0000   0.0000   0.0000   0.0000

          k =-0.1038-0.2016-0.0059 (  1476 PWs)   bands (ev):

   -24.9277 -24.9164 -24.9134 -24.9118 -24.9079   0.0757   3.2198   5.6700
     6.1529  16.3141  17.0050  17.6777  18.1993

     occupation numbers 
     1.0000   1.0000   1.0000   1.0000   1.0000   1.0000   1.0000   1.0000
     1.0000   0.0000   0.0000   0.0000   0.0000

          k =-0.1038-0.2045-0.0030 (  1480 PWs)   bands (ev):

   -24.9331 -24.9250 -24.9174 -24.9142 -24.9115   0.0899   3.2126   5.7158
     6.0797  16.3744  16.9765  17.7571  18.0640

     occupation numbers 
     1.0000   1.0000   1.0000   1.0000   1.0000   1.0000   1.0000   1.0000
     1.0000   0.0000   0.0000   0.0000   0.0000

          k =-0.1038-0.2075-0.0000 (  1480 PWs)   bands (ev):

   -24.9331 -24.9250 -24.9175 -24.9143 -24.9116   0.0947   3.2101   5.7366
     6.0499  16.3974  16.9625  17.8164  17.9879

     occupation numbers 
     1.0000   1.0000   1.0000   1.0000   1.0000   1.0000   1.0000   1.0000
     1.0000   0.0000   0.0000   0.0000   0.0000

          k =-0.0996-0.2075-0.0000 (  1480 PWs)   bands (ev):

   -24.9331 -24.9249 -24.9176 -24.9139 -24.9116   0.0941   3.2076   5.7419
     6.0534  16.3521  16.8730  17.9082  18.0353

     occupation numbers 
     1.0000   1.0000   1.0000   1.0000   1.0000   1.0000   1.0000   1.0000
     1.0000   0.0000   0.0000   0.0000   0.0000

          k =-0.0955-0.2075 0.0000 (  1480 PWs)   bands (ev):

   -24.9330 -24.9246 -24.9180 -24.9130 -24.9114   0.0922   3.2003   5.7577
     6.0638  16.2298  16.6700  18.1179  18.1640

     occupation numbers 
     1.0000   1.0000   1.0000   1.0000   1.0000   1.0000   1.0000   1.0000
     1.0000   0.0000   0.0000   0.0000   0.0000

          k =-0.0913-0.2075-0.0000 (  1480 PWs)   bands (ev):

   -24.9358 -24.9320 -24.9126 -24.9094 -24.9094   0.0892   3.1886   5.7837
     6.0811  16.0589  16.4254  18.3476  18.3732

     occupation numbers 
     1.0000   1.0000   1.0000   1.0000   1.0000   1.0000   1.0000   1.0000
     1.0000   0.0000   0.0000   0.0000   0.0000

          k =-0.0872-0.2075-0.0000 (  1484 PWs)   bands (ev):

   -24.9433 -24.9319 -24.9244 -24.9122 -24.9105   0.0850   3.1724   5.8194
     6.1051  15.8564  16.1669  18.5620  18.6461

     occupation numbers 
     1.0000   1.0000   1.0000   1.0000   1.0000   1.0000   1.0000   1.0000
     1.0000   0.0000   0.0000   0.0000   0.0000

          k =-0.0830-0.2075-0.0000 (  1492 PWs)   bands (ev):

   -24.9465 -24.9433 -24.9407 -24.9204 -24.9171   0.0798   3.1525   5.8641
     6.1355  15.6377  15.9046  18.7939  18.9261

     occupation numbers 
     1.0000   1.0000   1.0000   1.0000   1.0000   1.0000   1.0000   1.0000
     1.0000   0.0000   0.0000   0.0000   0.0000

          k =-0.0789-0.2075-0.0000 (  1492 PWs)   bands (ev):

   -24.9451 -24.9410 -24.9327 -24.9279 -24.9212   0.0736   3.1296   5.9171
     6.1720  15.4124  15.6431  19.0400  19.2089

     occupation numbers 
     1.0000   1.0000   1.0000   1.0000   1.0000   1.0000   1.0000   1.0000
     1.0000   0.0000   0.0000   0.0000   0.0000

          k =-0.0747-0.2075 0.0000 (  1488 PWs)   bands (ev):

   -24.9423 -24.9327 -24.9250 -24.9247 -24.9205   0.0666   3.1045   5.9778
     6.2146  15.1854  15.3852  19.2927  19.4919

     occupation numbers 
     1.0000   1.0000   1.0000   1.0000   1.0000   1.0000   1.0000   1.0000
     1.0000   0.0000   0.0000   0.0000   0.0000

          k =-0.0706-0.2075 0.0000 (  1488 PWs)   bands (ev):

   -24.9415 -24.9328 -24.9257 -24.9249 -24.9208   0.0588   3.0774   6.0448
     6.2626  14.9585  15.1314  19.5472  19.7718

     occupation numbers 
     1.0000   1.0000   1.0000   1.0000   1.0000   1.0000   1.0000   1.0000
     1.0000   0.0000   0.0000   0.0000   0.0000

          k =-0.0664-0.2075-0.0000 (  1488 PWs)   bands (ev):

   -24.9405 -24.9329 -24.9266 -24.9246 -24.9210   0.0505   3.0491   6.1175
     6.3155  14.7342  14.8835  19.8014  20.0467

     occupation numbers 
     1.0000   1.0000   1.0000   1.0000   1.0000   1.0000   1.0000   1.0000
     1.0000   0.0000   0.0000   0.0000   0.0000

          k =-0.0623-0.2075 0.0000 (  1488 PWs)   bands (ev):

   -24.9394 -24.9329 -24.9272 -24.9242 -24.9209   0.0417   3.0201   6.1948
     6.3728  14.5141  14.6424  20.0531  20.3146

     occupation numbers 
     1.0000   1.0000   1.0000   1.0000   1.0000   1.0000   1.0000   1.0000
     1.0000   0.0000   0.0000   0.0000   0.0000

          k =-0.0581-0.2075 0.0000 (  1490 PWs)   bands (ev):

   -24.9531 -24.9353 -24.9246 -24.9220 -24.9201   0.0326   2.9909   6.2757
     6.4339  14.3003  14.4090  20.2981  20.5734

     occupation numbers 
     1.0000   1.0000   1.0000   1.0000   1.0000   1.0000   1.0000   1.0000
     1.0000   0.0000   0.0000   0.0000   0.0000

          k =-0.0540-0.2075-0.0000 (  1490 PWs)   bands (ev):

   -24.9521 -24.9352 -24.9238 -24.9225 -24.9201   0.0234   2.9621   6.3592
     6.4979  14.0925  14.1843  20.5388  20.8204

     occupation numbers 
     1.0000   1.0000   1.0000   1.0000   1.0000   1.0000   1.0000   1.0000
     1.0000   0.0000   0.0000   0.0000   0.0000

          k =-0.0498-0.2075-0.0000 (  1492 PWs)   bands (ev):

   -24.9524 -24.9351 -24.9305 -24.9228 -24.9226   0.0141   2.9339   6.4441
     6.5640  13.8927  13.9686  20.7711  21.0530

     occupation numbers 
     1.0000   1.0000   1.0000   1.0000   1.0000   1.0000   1.0000   1.0000
     1.0000   0.0000   0.0000   0.0000   0.0000

          k =-0.0457-0.2075 0.0000 (  1494 PWs)   bands (ev):

   -24.9571 -24.9366 -24.9304 -24.9243 -24.9239   0.0050   2.9069   6.5294
     6.6316  13.7019  13.7641  20.9926  21.2696

     occupation numbers 
     1.0000   1.0000   1.0000   1.0000   1.0000   1.0000   1.0000   1.0000
     1.0000   0.0000   0.0000   0.0000   0.0000

          k =-0.0415-0.2075-0.0000 (  1494 PWs)   bands (ev):

   -24.9560 -24.9364 -24.9302 -24.9244 -24.9232  -0.0038   2.8812   6.6140
     6.6994  13.5212  13.5712  21.2030  21.4673

     occupation numbers 
     1.0000   1.0000   1.0000   1.0000   1.0000   1.0000   1.0000   1.0000
     1.0000   0.0000   0.0000   0.0000   0.0000

          k =-0.0374-0.2075-0.0000 (  1486 PWs)   bands (ev):

   -24.9415 -24.9324 -24.9262 -24.9202 -24.9025  -0.0122   2.8576   6.6966
     6.7666  13.3555  13.3917  21.4008  21.6443

     occupation numbers 
     1.0000   1.0000   1.0000   1.0000   1.0000   1.0000   1.0000   1.0000
     1.0000   0.0000   0.0000   0.0000   0.0000

          k =-0.0332-0.2075-0.0000 (  1486 PWs)   bands (ev):

   -24.9406 -24.9322 -24.9261 -24.9196 -24.9033  -0.0200   2.8356   6.7758
     6.8316  13.1987  13.2254  21.5815  21.7986

     occupation numbers 
     1.0000   1.0000   1.0000   1.0000   1.0000   1.0000   1.0000   1.0000
     1.0000   0.0000   0.0000   0.0000   0.0000

          k =-0.0291-0.2075-0.0000 (  1482 PWs)   bands (ev):

   -24.9315 -24.9291 -24.9237 -24.9108 -24.9023  -0.0272   2.8158   6.8506
     6.8935  13.0562  13.0745  21.7476  21.9302

     occupation numbers 
     1.0000   1.0000   1.0000   1.0000   1.0000   1.0000   1.0000   1.0000
     1.0000   0.0000   0.0000   0.0000   0.0000

          k =-0.0249-0.2075 0.0000 (  1486 PWs)   bands (ev):

   -24.9351 -24.9296 -24.9291 -24.9152 -24.9101  -0.0337   2.7982   6.9190
     6.9507  12.9275  12.9394  21.8918  22.0378

     occupation numbers 
     1.0000   1.0000   1.0000   1.0000   1.0000   1.0000   1.0000   1.0000
     1.0000   0.0000   0.0000   0.0000   0.0000

          k =-0.0208-0.2075 0.0000 (  1486 PWs)   bands (ev):

   -24.9347 -24.9295 -24.9282 -24.9144 -24.9104  -0.0393   2.7831   6.9801
     7.0021  12.8165  12.8225  22.0161  22.1252

     occupation numbers 
     1.0000   1.0000   1.0000   1.0000   1.0000   1.0000   1.0000   1.0000
     1.0000   0.0000   0.0000   0.0000   0.0000

          k =-0.0166-0.2075 0.0000 (  1490 PWs)   bands (ev):

   -24.9413 -24.9313 -24.9310 -24.9206 -24.9135  -0.0440   2.7705   7.0323
     7.0465  12.7219  12.7247  22.1189  22.1927

     occupation numbers 
     1.0000   1.0000   1.0000   1.0000   1.0000   1.0000   1.0000   1.0000
     1.0000   0.0000   0.0000   0.0000   0.0000

          k =-0.0125-0.2075 0.0000 (  1494 PWs)   bands (ev):

   -24.9450 -24.9374 -24.9310 -24.9307 -24.9139  -0.0477   2.7606   7.0744
     7.0824  12.6465  12.6472  22.1996  22.2427

     occupation numbers 
     1.0000   1.0000   1.0000   1.0000   1.0000   1.0000   1.0000   1.0000
     1.0000   0.0000   0.0000   0.0000   0.0000

          k =-0.0083-0.2075-0.0000 (  1500 PWs)   bands (ev):

   -24.9463 -24.9455 -24.9381 -24.9322 -24.9288  -0.0505   2.7535   7.1052
     7.1089  12.5905  12.5918  22.2562  22.2772

     occupation numbers 
     1.0000   1.0000   1.0000   1.0000   1.0000   1.0000   1.0000   1.0000
     1.0000   0.0000   0.0000   0.0000   0.0000

          k =-0.0042-0.2075 0.0000 (  1508 PWs)   bands (ev):

   -24.9585 -24.9520 -24.9462 -24.9401 -24.9389  -0.0522   2.7492   7.1242
     7.1249  12.5548  12.5592  22.2913  22.2949

     occupation numbers 
     1.0000   1.0000   1.0000   1.0000   1.0000   1.0000   1.0000   1.0000
     1.0000   0.0000   0.0000   0.0000   0.0000

          k = 0.0000-0.2075 0.0000 (  1524 PWs)   bands (ev):

   -24.9732 -24.9732 -24.9718 -24.9633 -24.9459  -0.0528   2.7477   7.1303
     7.1303  12.5415  12.5472  22.2993  22.2993

     occupation numbers 
     1.0000   1.0000   1.0000   1.0000   1.0000   1.0000   1.0000   1.0000
     1.0000   0.0000   0.0000   0.0000   0.0000

     the Fermi energy is    12.0350 ev

!    total energy              =    -217.60437678 Ry
     estimated scf accuracy    <       0.00000002 Ry
     smearing contrib. (-TS)   =      -0.00000000 Ry
     internal energy E=F+TS    =    -217.60437678 Ry

     The total energy is F=E-TS. E is the sum of the following terms:
     one-electron contribution =    -103.55415287 Ry
     hartree contribution      =      61.62677353 Ry
     xc contribution           =     -49.94698528 Ry
     ewald contribution        =    -125.73001215 Ry

     convergence has been achieved in   6 iterations

     Writing all to output data dir ./out/x.save/

     init_run     :      0.36s CPU      0.41s WALL (       1 calls)
     electrons    :      4.88s CPU      6.08s WALL (       1 calls)

     Called by init_run:
     wfcinit      :      0.22s CPU      0.26s WALL (       1 calls)
     wfcinit:atom :      0.00s CPU      0.00s WALL (     228 calls)
     wfcinit:wfcr :      0.19s CPU      0.23s WALL (     228 calls)
     potinit      :      0.01s CPU      0.01s WALL (       1 calls)
     hinit0       :      0.13s CPU      0.14s WALL (       1 calls)

     Called by electrons:
     c_bands      :      4.40s CPU      5.53s WALL (       6 calls)
     sum_band     :      0.47s CPU      0.53s WALL (       6 calls)
     v_of_rho     :      0.01s CPU      0.01s WALL (       7 calls)
     v_h          :      0.00s CPU      0.00s WALL (       7 calls)
     v_xc         :      0.01s CPU      0.01s WALL (       7 calls)
     mix_rho      :      0.00s CPU      0.00s WALL (       6 calls)

     Called by c_bands:
     init_us_2    :      0.07s CPU      0.08s WALL (    2964 calls)
     init_us_2:cp :      0.07s CPU      0.08s WALL (    2964 calls)
     cegterg      :      4.17s CPU      5.03s WALL (    1368 calls)

     Called by sum_band:
     sum_band:wei :      0.00s CPU      0.00s WALL (       6 calls)
     sum_band:loo :      0.46s CPU      0.52s WALL (       6 calls)
     sum_band:buf :      0.00s CPU      0.00s WALL (    1368 calls)
     sum_band:ini :      0.03s CPU      0.03s WALL (    1368 calls)

     Called by *egterg:
     cdiaghg      :      0.61s CPU      0.73s WALL (    5324 calls)
     cegterg:over :      0.32s CPU      0.39s WALL (    3956 calls)
     cegterg:upda :      0.04s CPU      0.05s WALL (    3956 calls)
     cegterg:last :      0.11s CPU      0.14s WALL (    2917 calls)
     h_psi        :      3.00s CPU      3.63s WALL (    5552 calls)
     g_psi        :      0.01s CPU      0.01s WALL (    3956 calls)

     Called by h_psi:
     h_psi:calbec :      0.27s CPU      0.33s WALL (    5552 calls)
     vloc_psi     :      2.59s CPU      3.14s WALL (    5552 calls)
     add_vuspsi   :      0.12s CPU      0.14s WALL (    5552 calls)

     General routines
     calbec       :      0.27s CPU      0.32s WALL (    5552 calls)
     fft          :      0.13s CPU      0.13s WALL (      70 calls)
     ffts         :      0.00s CPU      0.00s WALL (       6 calls)
     fftw         :      2.80s CPU      3.36s WALL (  115914 calls)

     Parallel routines

     PWSCF        :      5.94s CPU      7.78s WALL


   This run was terminated on:  16:35:22  23Jun2023            

=------------------------------------------------------------------------------=
   JOB DONE.
=------------------------------------------------------------------------------=
Note: The following floating-point exceptions are signalling: IEEE_DENORMAL
Note: The following floating-point exceptions are signalling: IEEE_DENORMAL
Note: The following floating-point exceptions are signalling: IEEE_DENORMAL
Note: The following floating-point exceptions are signalling: IEEE_DENORMAL
Note: The following floating-point exceptions are signalling: IEEE_DENORMAL
Note: The following floating-point exceptions are signalling: IEEE_DENORMAL
Note: The following floating-point exceptions are signalling: IEEE_DENORMAL
Note: The following floating-point exceptions are signalling: IEEE_DENORMAL
Note: The following floating-point exceptions are signalling: IEEE_DENORMAL
Note: The following floating-point exceptions are signalling: IEEE_DENORMAL
Note: The following floating-point exceptions are signalling: IEEE_DENORMAL
Note: The following floating-point exceptions are signalling: IEEE_DENORMAL
Note: The following floating-point exceptions are signalling: IEEE_DENORMAL
Note: The following floating-point exceptions are signalling: IEEE_DENORMAL
Note: The following floating-point exceptions are signalling: IEEE_DENORMAL
Note: The following floating-point exceptions are signalling: IEEE_DENORMAL
Note: The following floating-point exceptions are signalling: IEEE_DENORMAL
Note: The following floating-point exceptions are signalling: IEEE_DENORMAL
Note: The following floating-point exceptions are signalling: IEEE_DENORMAL
Note: The following floating-point exceptions are signalling: IEEE_DENORMAL
Note: The following floating-point exceptions are signalling: IEEE_DENORMAL
Note: The following floating-point exceptions are signalling: IEEE_DENORMAL
Note: The following floating-point exceptions are signalling: IEEE_DENORMAL
Note: The following floating-point exceptions are signalling: IEEE_DENORMAL
Note: The following floating-point exceptions are signalling: IEEE_DENORMAL
Note: The following floating-point exceptions are signalling: IEEE_DENORMAL
Note: The following floating-point exceptions are signalling: IEEE_DENORMAL
Note: The following floating-point exceptions are signalling: IEEE_DENORMAL
Note: The following floating-point exceptions are signalling: IEEE_DENORMAL
Note: The following floating-point exceptions are signalling: IEEE_DENORMAL
Note: The following floating-point exceptions are signalling: IEEE_DENORMAL
Note: The following floating-point exceptions are signalling: IEEE_DENORMAL
