
     Program PROJWFC v.7.0 starts on 29May2023 at 17:49:57 

     This program is part of the open-source Quantum ESPRESSO suite
     for quantum simulation of materials; please cite
         "P. Giannozzi et al., J. Phys.:Condens. Matter 21 395502 (2009);
         "P. Giannozzi et al., J. Phys.:Condens. Matter 29 465901 (2017);
         "P. Giannozzi et al., J. Chem. Phys. 152 154105 (2020);
          URL http://www.quantum-espresso.org", 
     in publications or presentations arising from this work. More details at
     http://www.quantum-espresso.org/quote

     Parallel version (MPI & OpenMP), running on     320 processor cores
     Number of MPI processes:               320
     Threads/MPI process:                     1

     MPI processes distributed on    10 nodes
     K-points division:     npool     =       5
     R & G space division:  proc/nbgrp/npool/nimage =      64
     123299 MiB available memory on the printing compute node when the environment starts
 

     Reading xml data from directory:

     out/bi2te3.save/

     IMPORTANT: XC functional enforced from input :
     Exchange-correlation= PBESOL
                           (   1   4  10   8   0   0   0)
     Any further DFT definition will be discarded
     Please, verify this is what you really want

 
     Parallelization info
     --------------------
     sticks:   dense  smooth     PW     G-vecs:    dense   smooth      PW
     Min          27      13      3                 6625     2327     333
     Max          28      14      4                 6646     2374     384
     Sum        1735     859    253               424491   150039   23443
 
     Using Slab Decomposition
 

     negative rho (up, down):  2.434E-01 0.000E+00

     Gaussian broadening (default values): ngauss,degauss=   0    0.000735


     Calling projwave .... 

     Subspace diagonalization in iterative solution of the eigenvalue problem:
     one sub-group per band group will be used
     scalapack distributed-memory algorithm (size of sub-group:  8*  8 procs)

     linear algebra parallelized on  64 procs
 
  Problem Sizes 
  natomwfc =          180
  nx       =           23
  nbnd     =          144
  nkstot   =           14
  npwx     =          305
  nkb      =          225
 

     Atomic states used for projection
     (read from pseudopotential files):

     state #   1: atom   1 (Bi ), wfc  1 (l=2 m= 1 s_z= 0.5)
     state #   2: atom   1 (Bi ), wfc  1 (l=2 m= 2 s_z= 0.5)
     state #   3: atom   1 (Bi ), wfc  1 (l=2 m= 3 s_z= 0.5)
     state #   4: atom   1 (Bi ), wfc  1 (l=2 m= 4 s_z= 0.5)
     state #   5: atom   1 (Bi ), wfc  1 (l=2 m= 5 s_z= 0.5)
     state #   6: atom   1 (Bi ), wfc  1 (l=2 m= 1 s_z=-0.5)
     state #   7: atom   1 (Bi ), wfc  1 (l=2 m= 2 s_z=-0.5)
     state #   8: atom   1 (Bi ), wfc  1 (l=2 m= 3 s_z=-0.5)
     state #   9: atom   1 (Bi ), wfc  1 (l=2 m= 4 s_z=-0.5)
     state #  10: atom   1 (Bi ), wfc  1 (l=2 m= 5 s_z=-0.5)
     state #  11: atom   1 (Bi ), wfc  2 (l=0 m= 1 s_z= 0.5)
     state #  12: atom   1 (Bi ), wfc  2 (l=0 m= 1 s_z=-0.5)
     state #  13: atom   1 (Bi ), wfc  3 (l=1 m= 1 s_z= 0.5)
     state #  14: atom   1 (Bi ), wfc  3 (l=1 m= 2 s_z= 0.5)
     state #  15: atom   1 (Bi ), wfc  3 (l=1 m= 3 s_z= 0.5)
     state #  16: atom   1 (Bi ), wfc  3 (l=1 m= 1 s_z=-0.5)
     state #  17: atom   1 (Bi ), wfc  3 (l=1 m= 2 s_z=-0.5)
     state #  18: atom   1 (Bi ), wfc  3 (l=1 m= 3 s_z=-0.5)
     state #  19: atom   2 (Bi ), wfc  1 (l=2 m= 1 s_z= 0.5)
     state #  20: atom   2 (Bi ), wfc  1 (l=2 m= 2 s_z= 0.5)
     state #  21: atom   2 (Bi ), wfc  1 (l=2 m= 3 s_z= 0.5)
     state #  22: atom   2 (Bi ), wfc  1 (l=2 m= 4 s_z= 0.5)
     state #  23: atom   2 (Bi ), wfc  1 (l=2 m= 5 s_z= 0.5)
     state #  24: atom   2 (Bi ), wfc  1 (l=2 m= 1 s_z=-0.5)
     state #  25: atom   2 (Bi ), wfc  1 (l=2 m= 2 s_z=-0.5)
     state #  26: atom   2 (Bi ), wfc  1 (l=2 m= 3 s_z=-0.5)
     state #  27: atom   2 (Bi ), wfc  1 (l=2 m= 4 s_z=-0.5)
     state #  28: atom   2 (Bi ), wfc  1 (l=2 m= 5 s_z=-0.5)
     state #  29: atom   2 (Bi ), wfc  2 (l=0 m= 1 s_z= 0.5)
     state #  30: atom   2 (Bi ), wfc  2 (l=0 m= 1 s_z=-0.5)
     state #  31: atom   2 (Bi ), wfc  3 (l=1 m= 1 s_z= 0.5)
     state #  32: atom   2 (Bi ), wfc  3 (l=1 m= 2 s_z= 0.5)
     state #  33: atom   2 (Bi ), wfc  3 (l=1 m= 3 s_z= 0.5)
     state #  34: atom   2 (Bi ), wfc  3 (l=1 m= 1 s_z=-0.5)
     state #  35: atom   2 (Bi ), wfc  3 (l=1 m= 2 s_z=-0.5)
     state #  36: atom   2 (Bi ), wfc  3 (l=1 m= 3 s_z=-0.5)
     state #  37: atom   3 (Bi ), wfc  1 (l=2 m= 1 s_z= 0.5)
     state #  38: atom   3 (Bi ), wfc  1 (l=2 m= 2 s_z= 0.5)
     state #  39: atom   3 (Bi ), wfc  1 (l=2 m= 3 s_z= 0.5)
     state #  40: atom   3 (Bi ), wfc  1 (l=2 m= 4 s_z= 0.5)
     state #  41: atom   3 (Bi ), wfc  1 (l=2 m= 5 s_z= 0.5)
     state #  42: atom   3 (Bi ), wfc  1 (l=2 m= 1 s_z=-0.5)
     state #  43: atom   3 (Bi ), wfc  1 (l=2 m= 2 s_z=-0.5)
     state #  44: atom   3 (Bi ), wfc  1 (l=2 m= 3 s_z=-0.5)
     state #  45: atom   3 (Bi ), wfc  1 (l=2 m= 4 s_z=-0.5)
     state #  46: atom   3 (Bi ), wfc  1 (l=2 m= 5 s_z=-0.5)
     state #  47: atom   3 (Bi ), wfc  2 (l=0 m= 1 s_z= 0.5)
     state #  48: atom   3 (Bi ), wfc  2 (l=0 m= 1 s_z=-0.5)
     state #  49: atom   3 (Bi ), wfc  3 (l=1 m= 1 s_z= 0.5)
     state #  50: atom   3 (Bi ), wfc  3 (l=1 m= 2 s_z= 0.5)
     state #  51: atom   3 (Bi ), wfc  3 (l=1 m= 3 s_z= 0.5)
     state #  52: atom   3 (Bi ), wfc  3 (l=1 m= 1 s_z=-0.5)
     state #  53: atom   3 (Bi ), wfc  3 (l=1 m= 2 s_z=-0.5)
     state #  54: atom   3 (Bi ), wfc  3 (l=1 m= 3 s_z=-0.5)
     state #  55: atom   4 (Bi ), wfc  1 (l=2 m= 1 s_z= 0.5)
     state #  56: atom   4 (Bi ), wfc  1 (l=2 m= 2 s_z= 0.5)
     state #  57: atom   4 (Bi ), wfc  1 (l=2 m= 3 s_z= 0.5)
     state #  58: atom   4 (Bi ), wfc  1 (l=2 m= 4 s_z= 0.5)
     state #  59: atom   4 (Bi ), wfc  1 (l=2 m= 5 s_z= 0.5)
     state #  60: atom   4 (Bi ), wfc  1 (l=2 m= 1 s_z=-0.5)
     state #  61: atom   4 (Bi ), wfc  1 (l=2 m= 2 s_z=-0.5)
     state #  62: atom   4 (Bi ), wfc  1 (l=2 m= 3 s_z=-0.5)
     state #  63: atom   4 (Bi ), wfc  1 (l=2 m= 4 s_z=-0.5)
     state #  64: atom   4 (Bi ), wfc  1 (l=2 m= 5 s_z=-0.5)
     state #  65: atom   4 (Bi ), wfc  2 (l=0 m= 1 s_z= 0.5)
     state #  66: atom   4 (Bi ), wfc  2 (l=0 m= 1 s_z=-0.5)
     state #  67: atom   4 (Bi ), wfc  3 (l=1 m= 1 s_z= 0.5)
     state #  68: atom   4 (Bi ), wfc  3 (l=1 m= 2 s_z= 0.5)
     state #  69: atom   4 (Bi ), wfc  3 (l=1 m= 3 s_z= 0.5)
     state #  70: atom   4 (Bi ), wfc  3 (l=1 m= 1 s_z=-0.5)
     state #  71: atom   4 (Bi ), wfc  3 (l=1 m= 2 s_z=-0.5)
     state #  72: atom   4 (Bi ), wfc  3 (l=1 m= 3 s_z=-0.5)
     state #  73: atom   5 (Bi ), wfc  1 (l=2 m= 1 s_z= 0.5)
     state #  74: atom   5 (Bi ), wfc  1 (l=2 m= 2 s_z= 0.5)
     state #  75: atom   5 (Bi ), wfc  1 (l=2 m= 3 s_z= 0.5)
     state #  76: atom   5 (Bi ), wfc  1 (l=2 m= 4 s_z= 0.5)
     state #  77: atom   5 (Bi ), wfc  1 (l=2 m= 5 s_z= 0.5)
     state #  78: atom   5 (Bi ), wfc  1 (l=2 m= 1 s_z=-0.5)
     state #  79: atom   5 (Bi ), wfc  1 (l=2 m= 2 s_z=-0.5)
     state #  80: atom   5 (Bi ), wfc  1 (l=2 m= 3 s_z=-0.5)
     state #  81: atom   5 (Bi ), wfc  1 (l=2 m= 4 s_z=-0.5)
     state #  82: atom   5 (Bi ), wfc  1 (l=2 m= 5 s_z=-0.5)
     state #  83: atom   5 (Bi ), wfc  2 (l=0 m= 1 s_z= 0.5)
     state #  84: atom   5 (Bi ), wfc  2 (l=0 m= 1 s_z=-0.5)
     state #  85: atom   5 (Bi ), wfc  3 (l=1 m= 1 s_z= 0.5)
     state #  86: atom   5 (Bi ), wfc  3 (l=1 m= 2 s_z= 0.5)
     state #  87: atom   5 (Bi ), wfc  3 (l=1 m= 3 s_z= 0.5)
     state #  88: atom   5 (Bi ), wfc  3 (l=1 m= 1 s_z=-0.5)
     state #  89: atom   5 (Bi ), wfc  3 (l=1 m= 2 s_z=-0.5)
     state #  90: atom   5 (Bi ), wfc  3 (l=1 m= 3 s_z=-0.5)
     state #  91: atom   6 (Bi ), wfc  1 (l=2 m= 1 s_z= 0.5)
     state #  92: atom   6 (Bi ), wfc  1 (l=2 m= 2 s_z= 0.5)
     state #  93: atom   6 (Bi ), wfc  1 (l=2 m= 3 s_z= 0.5)
     state #  94: atom   6 (Bi ), wfc  1 (l=2 m= 4 s_z= 0.5)
     state #  95: atom   6 (Bi ), wfc  1 (l=2 m= 5 s_z= 0.5)
     state #  96: atom   6 (Bi ), wfc  1 (l=2 m= 1 s_z=-0.5)
     state #  97: atom   6 (Bi ), wfc  1 (l=2 m= 2 s_z=-0.5)
     state #  98: atom   6 (Bi ), wfc  1 (l=2 m= 3 s_z=-0.5)
     state #  99: atom   6 (Bi ), wfc  1 (l=2 m= 4 s_z=-0.5)
     state # 100: atom   6 (Bi ), wfc  1 (l=2 m= 5 s_z=-0.5)
     state # 101: atom   6 (Bi ), wfc  2 (l=0 m= 1 s_z= 0.5)
     state # 102: atom   6 (Bi ), wfc  2 (l=0 m= 1 s_z=-0.5)
     state # 103: atom   6 (Bi ), wfc  3 (l=1 m= 1 s_z= 0.5)
     state # 104: atom   6 (Bi ), wfc  3 (l=1 m= 2 s_z= 0.5)
     state # 105: atom   6 (Bi ), wfc  3 (l=1 m= 3 s_z= 0.5)
     state # 106: atom   6 (Bi ), wfc  3 (l=1 m= 1 s_z=-0.5)
     state # 107: atom   6 (Bi ), wfc  3 (l=1 m= 2 s_z=-0.5)
     state # 108: atom   6 (Bi ), wfc  3 (l=1 m= 3 s_z=-0.5)
     state # 109: atom   7 (Te ), wfc  1 (l=0 m= 1 s_z= 0.5)
     state # 110: atom   7 (Te ), wfc  1 (l=0 m= 1 s_z=-0.5)
     state # 111: atom   7 (Te ), wfc  2 (l=1 m= 1 s_z= 0.5)
     state # 112: atom   7 (Te ), wfc  2 (l=1 m= 2 s_z= 0.5)
     state # 113: atom   7 (Te ), wfc  2 (l=1 m= 3 s_z= 0.5)
     state # 114: atom   7 (Te ), wfc  2 (l=1 m= 1 s_z=-0.5)
     state # 115: atom   7 (Te ), wfc  2 (l=1 m= 2 s_z=-0.5)
     state # 116: atom   7 (Te ), wfc  2 (l=1 m= 3 s_z=-0.5)
     state # 117: atom   8 (Te ), wfc  1 (l=0 m= 1 s_z= 0.5)
     state # 118: atom   8 (Te ), wfc  1 (l=0 m= 1 s_z=-0.5)
     state # 119: atom   8 (Te ), wfc  2 (l=1 m= 1 s_z= 0.5)
     state # 120: atom   8 (Te ), wfc  2 (l=1 m= 2 s_z= 0.5)
     state # 121: atom   8 (Te ), wfc  2 (l=1 m= 3 s_z= 0.5)
     state # 122: atom   8 (Te ), wfc  2 (l=1 m= 1 s_z=-0.5)
     state # 123: atom   8 (Te ), wfc  2 (l=1 m= 2 s_z=-0.5)
     state # 124: atom   8 (Te ), wfc  2 (l=1 m= 3 s_z=-0.5)
     state # 125: atom   9 (Te ), wfc  1 (l=0 m= 1 s_z= 0.5)
     state # 126: atom   9 (Te ), wfc  1 (l=0 m= 1 s_z=-0.5)
     state # 127: atom   9 (Te ), wfc  2 (l=1 m= 1 s_z= 0.5)
     state # 128: atom   9 (Te ), wfc  2 (l=1 m= 2 s_z= 0.5)
     state # 129: atom   9 (Te ), wfc  2 (l=1 m= 3 s_z= 0.5)
     state # 130: atom   9 (Te ), wfc  2 (l=1 m= 1 s_z=-0.5)
     state # 131: atom   9 (Te ), wfc  2 (l=1 m= 2 s_z=-0.5)
     state # 132: atom   9 (Te ), wfc  2 (l=1 m= 3 s_z=-0.5)
     state # 133: atom  10 (Te ), wfc  1 (l=0 m= 1 s_z= 0.5)
     state # 134: atom  10 (Te ), wfc  1 (l=0 m= 1 s_z=-0.5)
     state # 135: atom  10 (Te ), wfc  2 (l=1 m= 1 s_z= 0.5)
     state # 136: atom  10 (Te ), wfc  2 (l=1 m= 2 s_z= 0.5)
     state # 137: atom  10 (Te ), wfc  2 (l=1 m= 3 s_z= 0.5)
     state # 138: atom  10 (Te ), wfc  2 (l=1 m= 1 s_z=-0.5)
     state # 139: atom  10 (Te ), wfc  2 (l=1 m= 2 s_z=-0.5)
     state # 140: atom  10 (Te ), wfc  2 (l=1 m= 3 s_z=-0.5)
     state # 141: atom  11 (Te ), wfc  1 (l=0 m= 1 s_z= 0.5)
     state # 142: atom  11 (Te ), wfc  1 (l=0 m= 1 s_z=-0.5)
     state # 143: atom  11 (Te ), wfc  2 (l=1 m= 1 s_z= 0.5)
     state # 144: atom  11 (Te ), wfc  2 (l=1 m= 2 s_z= 0.5)
     state # 145: atom  11 (Te ), wfc  2 (l=1 m= 3 s_z= 0.5)
     state # 146: atom  11 (Te ), wfc  2 (l=1 m= 1 s_z=-0.5)
     state # 147: atom  11 (Te ), wfc  2 (l=1 m= 2 s_z=-0.5)
     state # 148: atom  11 (Te ), wfc  2 (l=1 m= 3 s_z=-0.5)
     state # 149: atom  12 (Te ), wfc  1 (l=0 m= 1 s_z= 0.5)
     state # 150: atom  12 (Te ), wfc  1 (l=0 m= 1 s_z=-0.5)
     state # 151: atom  12 (Te ), wfc  2 (l=1 m= 1 s_z= 0.5)
     state # 152: atom  12 (Te ), wfc  2 (l=1 m= 2 s_z= 0.5)
     state # 153: atom  12 (Te ), wfc  2 (l=1 m= 3 s_z= 0.5)
     state # 154: atom  12 (Te ), wfc  2 (l=1 m= 1 s_z=-0.5)
     state # 155: atom  12 (Te ), wfc  2 (l=1 m= 2 s_z=-0.5)
     state # 156: atom  12 (Te ), wfc  2 (l=1 m= 3 s_z=-0.5)
     state # 157: atom  13 (Te ), wfc  1 (l=0 m= 1 s_z= 0.5)
     state # 158: atom  13 (Te ), wfc  1 (l=0 m= 1 s_z=-0.5)
     state # 159: atom  13 (Te ), wfc  2 (l=1 m= 1 s_z= 0.5)
     state # 160: atom  13 (Te ), wfc  2 (l=1 m= 2 s_z= 0.5)
     state # 161: atom  13 (Te ), wfc  2 (l=1 m= 3 s_z= 0.5)
     state # 162: atom  13 (Te ), wfc  2 (l=1 m= 1 s_z=-0.5)
     state # 163: atom  13 (Te ), wfc  2 (l=1 m= 2 s_z=-0.5)
     state # 164: atom  13 (Te ), wfc  2 (l=1 m= 3 s_z=-0.5)
     state # 165: atom  14 (Te ), wfc  1 (l=0 m= 1 s_z= 0.5)
     state # 166: atom  14 (Te ), wfc  1 (l=0 m= 1 s_z=-0.5)
     state # 167: atom  14 (Te ), wfc  2 (l=1 m= 1 s_z= 0.5)
     state # 168: atom  14 (Te ), wfc  2 (l=1 m= 2 s_z= 0.5)
     state # 169: atom  14 (Te ), wfc  2 (l=1 m= 3 s_z= 0.5)
     state # 170: atom  14 (Te ), wfc  2 (l=1 m= 1 s_z=-0.5)
     state # 171: atom  14 (Te ), wfc  2 (l=1 m= 2 s_z=-0.5)
     state # 172: atom  14 (Te ), wfc  2 (l=1 m= 3 s_z=-0.5)
     state # 173: atom  15 (Te ), wfc  1 (l=0 m= 1 s_z= 0.5)
     state # 174: atom  15 (Te ), wfc  1 (l=0 m= 1 s_z=-0.5)
     state # 175: atom  15 (Te ), wfc  2 (l=1 m= 1 s_z= 0.5)
     state # 176: atom  15 (Te ), wfc  2 (l=1 m= 2 s_z= 0.5)
     state # 177: atom  15 (Te ), wfc  2 (l=1 m= 3 s_z= 0.5)
     state # 178: atom  15 (Te ), wfc  2 (l=1 m= 1 s_z=-0.5)
     state # 179: atom  15 (Te ), wfc  2 (l=1 m= 2 s_z=-0.5)
     state # 180: atom  15 (Te ), wfc  2 (l=1 m= 3 s_z=-0.5)

 k =   0.0000000000  0.0000000000  0.0000000000
==== e(   1) =   -16.49529 eV ==== 
     psi = 0.049*[#  40]+0.049*[#  41]+0.049*[#  45]+0.049*[#  46]+0.049*[#  58]
          +0.049*[#  59]+0.049*[#  63]+0.049*[#  64]+0.049*[#   4]+0.049*[#   5]
          +0.049*[#   9]+0.049*[#  10]+0.049*[#  94]+0.049*[#  95]+0.049*[#  99]
          +0.049*[# 100]+0.012*[#  38]+0.012*[#  39]+0.012*[#  43]+0.012*[#  44]
          +0.012*[#  56]+0.012*[#  57]+0.012*[#  61]+0.012*[#  62]+0.011*[#   2]
          +0.011*[#   3]+0.011*[#   7]+0.011*[#   8]+0.011*[#  92]+0.011*[#  93]
          +0.011*[#  97]+0.011*[#  98]+0.003*[#  22]+0.003*[#  23]+0.003*[#  27]
          +0.003*[#  28]+0.003*[#  76]+0.003*[#  77]+0.003*[#  81]+0.003*[#  82]
          
    |psi|^2 = 1.000
==== e(   2) =   -16.49529 eV ==== 
     psi = 0.049*[#  40]+0.049*[#  41]+0.049*[#  45]+0.049*[#  46]+0.049*[#  58]
          +0.049*[#  59]+0.049*[#  63]+0.049*[#  64]+0.049*[#   4]+0.049*[#   5]
          +0.049*[#   9]+0.049*[#  10]+0.049*[#  94]+0.049*[#  95]+0.049*[#  99]
          +0.049*[# 100]+0.012*[#  38]+0.012*[#  39]+0.012*[#  43]+0.012*[#  44]
          +0.012*[#  56]+0.012*[#  57]+0.012*[#  61]+0.012*[#  62]+0.011*[#   2]
          +0.011*[#   3]+0.011*[#   7]+0.011*[#   8]+0.011*[#  92]+0.011*[#  93]
          +0.011*[#  97]+0.011*[#  98]+0.003*[#  22]+0.003*[#  23]+0.003*[#  27]
          +0.003*[#  28]+0.003*[#  76]+0.003*[#  77]+0.003*[#  81]+0.003*[#  82]
          
    |psi|^2 = 1.000
==== e(   3) =   -16.49529 eV ==== 
     psi = 0.049*[#  40]+0.049*[#  41]+0.049*[#  45]+0.049*[#  46]+0.049*[#  58]
          +0.049*[#  59]+0.049*[#  63]+0.049*[#  64]+0.049*[#   4]+0.049*[#   5]
          +0.049*[#   9]+0.049*[#  10]+0.049*[#  94]+0.049*[#  95]+0.049*[#  99]
          +0.049*[# 100]+0.012*[#  38]+0.012*[#  39]+0.012*[#  43]+0.012*[#  44]
          +0.012*[#  56]+0.012*[#  57]+0.012*[#  61]+0.012*[#  62]+0.011*[#   2]
          +0.011*[#   3]+0.011*[#   7]+0.011*[#   8]+0.011*[#  92]+0.011*[#  93]
          +0.011*[#  97]+0.011*[#  98]+0.003*[#  22]+0.003*[#  23]+0.003*[#  27]
          +0.003*[#  28]+0.003*[#  76]+0.003*[#  77]+0.003*[#  81]+0.003*[#  82]
          
    |psi|^2 = 1.000
==== e(   4) =   -16.49529 eV ==== 
     psi = 0.049*[#  40]+0.049*[#  41]+0.049*[#  45]+0.049*[#  46]+0.049*[#  58]
          +0.049*[#  59]+0.049*[#  63]+0.049*[#  64]+0.049*[#   4]+0.049*[#   5]
          +0.049*[#   9]+0.049*[#  10]+0.049*[#  94]+0.049*[#  95]+0.049*[#  99]
          +0.049*[# 100]+0.012*[#  38]+0.012*[#  39]+0.012*[#  43]+0.012*[#  44]
          +0.012*[#  56]+0.012*[#  57]+0.012*[#  61]+0.012*[#  62]+0.011*[#   2]
          +0.011*[#   3]+0.011*[#   7]+0.011*[#   8]+0.011*[#  92]+0.011*[#  93]
          +0.011*[#  97]+0.011*[#  98]+0.003*[#  22]+0.003*[#  23]+0.003*[#  27]
          +0.003*[#  28]+0.003*[#  76]+0.003*[#  77]+0.003*[#  81]+0.003*[#  82]
          
    |psi|^2 = 1.000
==== e(   5) =   -16.49528 eV ==== 
     psi = 0.052*[#   4]+0.052*[#   5]+0.052*[#   9]+0.052*[#  10]+0.052*[#  94]
          +0.052*[#  95]+0.052*[#  99]+0.052*[# 100]+0.049*[#  40]+0.049*[#  41]
          +0.049*[#  45]+0.049*[#  46]+0.049*[#  58]+0.049*[#  59]+0.049*[#  63]
          +0.049*[#  64]+0.012*[#   2]+0.012*[#   3]+0.012*[#   7]+0.012*[#   8]
          +0.012*[#  92]+0.012*[#  93]+0.012*[#  97]+0.012*[#  98]+0.011*[#  38]
          +0.011*[#  39]+0.011*[#  43]+0.011*[#  44]+0.011*[#  56]+0.011*[#  57]
          +0.011*[#  61]+0.011*[#  62]
    |psi|^2 = 1.000
==== e(   6) =   -16.49528 eV ==== 
     psi = 0.052*[#   4]+0.052*[#   5]+0.052*[#   9]+0.052*[#  10]+0.052*[#  94]
          +0.052*[#  95]+0.052*[#  99]+0.052*[# 100]+0.049*[#  40]+0.049*[#  41]
          +0.049*[#  45]+0.049*[#  46]+0.049*[#  58]+0.049*[#  59]+0.049*[#  63]
          +0.049*[#  64]+0.012*[#   2]+0.012*[#   3]+0.012*[#   7]+0.012*[#   8]
          +0.012*[#  92]+0.012*[#  93]+0.012*[#  97]+0.012*[#  98]+0.011*[#  38]
          +0.011*[#  39]+0.011*[#  43]+0.011*[#  44]+0.011*[#  56]+0.011*[#  57]
          +0.011*[#  61]+0.011*[#  62]
    |psi|^2 = 1.000
==== e(   7) =   -16.49528 eV ==== 
     psi = 0.052*[#   4]+0.052*[#   5]+0.052*[#   9]+0.052*[#  10]+0.052*[#  94]
          +0.052*[#  95]+0.052*[#  99]+0.052*[# 100]+0.049*[#  40]+0.049*[#  41]
          +0.049*[#  45]+0.049*[#  46]+0.049*[#  58]+0.049*[#  59]+0.049*[#  63]
          +0.049*[#  64]+0.012*[#   2]+0.012*[#   3]+0.012*[#   7]+0.012*[#   8]
          +0.012*[#  92]+0.012*[#  93]+0.012*[#  97]+0.012*[#  98]+0.011*[#  38]
          +0.011*[#  39]+0.011*[#  43]+0.011*[#  44]+0.011*[#  56]+0.011*[#  57]
          +0.011*[#  61]+0.011*[#  62]
    |psi|^2 = 1.000
==== e(   8) =   -16.49528 eV ==== 
     psi = 0.052*[#   4]+0.052*[#   5]+0.052*[#   9]+0.052*[#  10]+0.052*[#  94]
          +0.052*[#  95]+0.052*[#  99]+0.052*[# 100]+0.049*[#  40]+0.049*[#  41]
          +0.049*[#  45]+0.049*[#  46]+0.049*[#  58]+0.049*[#  59]+0.049*[#  63]
          +0.049*[#  64]+0.012*[#   2]+0.012*[#   3]+0.012*[#   7]+0.012*[#   8]
          +0.012*[#  92]+0.012*[#  93]+0.012*[#  97]+0.012*[#  98]+0.011*[#  38]
          +0.011*[#  39]+0.011*[#  43]+0.011*[#  44]+0.011*[#  56]+0.011*[#  57]
          +0.011*[#  61]+0.011*[#  62]
    |psi|^2 = 1.000
==== e(   9) =   -16.49526 eV ==== 
     psi = 0.098*[#  22]+0.098*[#  23]+0.098*[#  27]+0.098*[#  28]+0.098*[#  76]
          +0.098*[#  77]+0.098*[#  81]+0.098*[#  82]+0.023*[#  20]+0.023*[#  21]
          +0.023*[#  25]+0.023*[#  26]+0.023*[#  74]+0.023*[#  75]+0.023*[#  79]
          +0.023*[#  80]+0.002*[#  40]+0.002*[#  41]+0.002*[#  45]+0.002*[#  46]
          +0.002*[#  58]+0.002*[#  59]+0.002*[#  63]+0.002*[#  64]+0.001*[#   4]
          +0.001*[#   5]+0.001*[#   9]+0.001*[#  10]+0.001*[#  94]+0.001*[#  95]
          +0.001*[#  99]+0.001*[# 100]
    |psi|^2 = 1.000
==== e(  10) =   -16.49526 eV ==== 
     psi = 0.098*[#  22]+0.098*[#  23]+0.098*[#  27]+0.098*[#  28]+0.098*[#  76]
          +0.098*[#  77]+0.098*[#  81]+0.098*[#  82]+0.023*[#  20]+0.023*[#  21]
          +0.023*[#  25]+0.023*[#  26]+0.023*[#  74]+0.023*[#  75]+0.023*[#  79]
          +0.023*[#  80]+0.002*[#  40]+0.002*[#  41]+0.002*[#  45]+0.002*[#  46]
          +0.002*[#  58]+0.002*[#  59]+0.002*[#  63]+0.002*[#  64]+0.001*[#   4]
          +0.001*[#   5]+0.001*[#   9]+0.001*[#  10]+0.001*[#  94]+0.001*[#  95]
          +0.001*[#  99]+0.001*[# 100]
    |psi|^2 = 1.000
==== e(  11) =   -16.49526 eV ==== 
     psi = 0.098*[#  22]+0.098*[#  23]+0.098*[#  27]+0.098*[#  28]+0.098*[#  76]
          +0.098*[#  77]+0.098*[#  81]+0.098*[#  82]+0.023*[#  20]+0.023*[#  21]
          +0.023*[#  25]+0.023*[#  26]+0.023*[#  74]+0.023*[#  75]+0.023*[#  79]
          +0.023*[#  80]+0.002*[#  40]+0.002*[#  41]+0.002*[#  45]+0.002*[#  46]
          +0.002*[#  58]+0.002*[#  59]+0.002*[#  63]+0.002*[#  64]+0.001*[#   4]
          +0.001*[#   5]+0.001*[#   9]+0.001*[#  10]+0.001*[#  94]+0.001*[#  95]
          +0.001*[#  99]+0.001*[# 100]
    |psi|^2 = 1.000
==== e(  12) =   -16.49526 eV ==== 
     psi = 0.098*[#  22]+0.098*[#  23]+0.098*[#  27]+0.098*[#  28]+0.098*[#  76]
          +0.098*[#  77]+0.098*[#  81]+0.098*[#  82]+0.023*[#  20]+0.023*[#  21]
          +0.023*[#  25]+0.023*[#  26]+0.023*[#  74]+0.023*[#  75]+0.023*[#  79]
          +0.023*[#  80]+0.002*[#  40]+0.002*[#  41]+0.002*[#  45]+0.002*[#  46]
          +0.002*[#  58]+0.002*[#  59]+0.002*[#  63]+0.002*[#  64]+0.001*[#   4]
          +0.001*[#   5]+0.001*[#   9]+0.001*[#  10]+0.001*[#  94]+0.001*[#  95]
          +0.001*[#  99]+0.001*[# 100]
    |psi|^2 = 1.000
==== e(  13) =   -16.49416 eV ==== 
     psi = 0.052*[#   4]+0.052*[#   5]+0.052*[#   9]+0.052*[#  10]+0.052*[#  94]
          +0.052*[#  95]+0.052*[#  99]+0.052*[# 100]+0.051*[#  40]+0.051*[#  41]
          +0.051*[#  45]+0.051*[#  46]+0.051*[#  58]+0.051*[#  59]+0.051*[#  63]
          +0.051*[#  64]+0.011*[#   2]+0.011*[#   3]+0.011*[#   7]+0.011*[#   8]
          +0.011*[#  92]+0.011*[#  93]+0.011*[#  97]+0.011*[#  98]+0.011*[#  38]
          +0.011*[#  39]+0.011*[#  43]+0.011*[#  44]+0.011*[#  56]+0.011*[#  57]
          +0.011*[#  61]+0.011*[#  62]
    |psi|^2 = 1.000
==== e(  14) =   -16.49416 eV ==== 
     psi = 0.052*[#   4]+0.052*[#   5]+0.052*[#   9]+0.052*[#  10]+0.052*[#  94]
          +0.052*[#  95]+0.052*[#  99]+0.052*[# 100]+0.051*[#  40]+0.051*[#  41]
          +0.051*[#  45]+0.051*[#  46]+0.051*[#  58]+0.051*[#  59]+0.051*[#  63]
          +0.051*[#  64]+0.011*[#   2]+0.011*[#   3]+0.011*[#   7]+0.011*[#   8]
          +0.011*[#  92]+0.011*[#  93]+0.011*[#  97]+0.011*[#  98]+0.011*[#  38]
          +0.011*[#  39]+0.011*[#  43]+0.011*[#  44]+0.011*[#  56]+0.011*[#  57]
          +0.011*[#  61]+0.011*[#  62]
    |psi|^2 = 1.000
==== e(  15) =   -16.49416 eV ==== 
     psi = 0.052*[#   4]+0.052*[#   5]+0.052*[#   9]+0.052*[#  10]+0.052*[#  94]
          +0.052*[#  95]+0.052*[#  99]+0.052*[# 100]+0.051*[#  40]+0.051*[#  41]
          +0.051*[#  45]+0.051*[#  46]+0.051*[#  58]+0.051*[#  59]+0.051*[#  63]
          +0.051*[#  64]+0.011*[#   2]+0.011*[#   3]+0.011*[#   7]+0.011*[#   8]
          +0.011*[#  92]+0.011*[#  93]+0.011*[#  97]+0.011*[#  98]+0.011*[#  38]
          +0.011*[#  39]+0.011*[#  43]+0.011*[#  44]+0.011*[#  56]+0.011*[#  57]
          +0.011*[#  61]+0.011*[#  62]
    |psi|^2 = 1.000
==== e(  16) =   -16.49416 eV ==== 
     psi = 0.052*[#   4]+0.052*[#   5]+0.052*[#   9]+0.052*[#  10]+0.052*[#  94]
          +0.052*[#  95]+0.052*[#  99]+0.052*[# 100]+0.051*[#  40]+0.051*[#  41]
          +0.051*[#  45]+0.051*[#  46]+0.051*[#  58]+0.051*[#  59]+0.051*[#  63]
          +0.051*[#  64]+0.011*[#   2]+0.011*[#   3]+0.011*[#   7]+0.011*[#   8]
          +0.011*[#  92]+0.011*[#  93]+0.011*[#  97]+0.011*[#  98]+0.011*[#  38]
          +0.011*[#  39]+0.011*[#  43]+0.011*[#  44]+0.011*[#  56]+0.011*[#  57]
          +0.011*[#  61]+0.011*[#  62]
    |psi|^2 = 1.000
==== e(  17) =   -16.49416 eV ==== 
     psi = 0.053*[#  40]+0.053*[#  41]+0.053*[#  45]+0.053*[#  46]+0.053*[#  58]
          +0.053*[#  59]+0.053*[#  63]+0.053*[#  64]+0.049*[#   4]+0.049*[#   5]
          +0.049*[#   9]+0.049*[#  10]+0.049*[#  94]+0.049*[#  95]+0.049*[#  99]
          +0.049*[# 100]+0.011*[#  38]+0.011*[#  39]+0.011*[#  43]+0.011*[#  44]
          +0.011*[#  56]+0.011*[#  57]+0.011*[#  61]+0.011*[#  62]+0.010*[#   2]
          +0.010*[#   3]+0.010*[#   7]+0.010*[#   8]+0.010*[#  92]+0.010*[#  93]
          +0.010*[#  97]+0.010*[#  98]
    |psi|^2 = 1.000
==== e(  18) =   -16.49416 eV ==== 
     psi = 0.053*[#  40]+0.053*[#  41]+0.053*[#  45]+0.053*[#  46]+0.053*[#  58]
          +0.053*[#  59]+0.053*[#  63]+0.053*[#  64]+0.049*[#   4]+0.049*[#   5]
          +0.049*[#   9]+0.049*[#  10]+0.049*[#  94]+0.049*[#  95]+0.049*[#  99]
          +0.049*[# 100]+0.011*[#  38]+0.011*[#  39]+0.011*[#  43]+0.011*[#  44]
          +0.011*[#  56]+0.011*[#  57]+0.011*[#  61]+0.011*[#  62]+0.010*[#   2]
          +0.010*[#   3]+0.010*[#   7]+0.010*[#   8]+0.010*[#  92]+0.010*[#  93]
          +0.010*[#  97]+0.010*[#  98]
    |psi|^2 = 1.000
==== e(  19) =   -16.49416 eV ==== 
     psi = 0.053*[#  40]+0.053*[#  41]+0.053*[#  45]+0.053*[#  46]+0.053*[#  58]
          +0.053*[#  59]+0.053*[#  63]+0.053*[#  64]+0.049*[#   4]+0.049*[#   5]
          +0.049*[#   9]+0.049*[#  10]+0.049*[#  94]+0.049*[#  95]+0.049*[#  99]
          +0.049*[# 100]+0.011*[#  38]+0.011*[#  39]+0.011*[#  43]+0.011*[#  44]
          +0.011*[#  56]+0.011*[#  57]+0.011*[#  61]+0.011*[#  62]+0.010*[#   2]
          +0.010*[#   3]+0.010*[#   7]+0.010*[#   8]+0.010*[#  92]+0.010*[#  93]
          +0.010*[#  97]+0.010*[#  98]
    |psi|^2 = 1.000
==== e(  20) =   -16.49416 eV ==== 
     psi = 0.053*[#  40]+0.053*[#  41]+0.053*[#  45]+0.053*[#  46]+0.053*[#  58]
          +0.053*[#  59]+0.053*[#  63]+0.053*[#  64]+0.049*[#   4]+0.049*[#   5]
          +0.049*[#   9]+0.049*[#  10]+0.049*[#  94]+0.049*[#  95]+0.049*[#  99]
          +0.049*[# 100]+0.011*[#  38]+0.011*[#  39]+0.011*[#  43]+0.011*[#  44]
          +0.011*[#  56]+0.011*[#  57]+0.011*[#  61]+0.011*[#  62]+0.010*[#   2]
          +0.010*[#   3]+0.010*[#   7]+0.010*[#   8]+0.010*[#  92]+0.010*[#  93]
          +0.010*[#  97]+0.010*[#  98]
    |psi|^2 = 1.000
==== e(  21) =   -16.49413 eV ==== 
     psi = 0.102*[#  22]+0.102*[#  23]+0.102*[#  27]+0.102*[#  28]+0.102*[#  76]
          +0.102*[#  77]+0.102*[#  81]+0.102*[#  82]+0.022*[#  20]+0.022*[#  21]
          +0.022*[#  25]+0.022*[#  26]+0.022*[#  74]+0.022*[#  75]+0.022*[#  79]
          +0.022*[#  80]
    |psi|^2 = 1.000
==== e(  22) =   -16.49413 eV ==== 
     psi = 0.102*[#  22]+0.102*[#  23]+0.102*[#  27]+0.102*[#  28]+0.102*[#  76]
          +0.102*[#  77]+0.102*[#  81]+0.102*[#  82]+0.022*[#  20]+0.022*[#  21]
          +0.022*[#  25]+0.022*[#  26]+0.022*[#  74]+0.022*[#  75]+0.022*[#  79]
          +0.022*[#  80]
    |psi|^2 = 1.000
==== e(  23) =   -16.49413 eV ==== 
     psi = 0.102*[#  22]+0.102*[#  23]+0.102*[#  27]+0.102*[#  28]+0.102*[#  76]
          +0.102*[#  77]+0.102*[#  81]+0.102*[#  82]+0.022*[#  20]+0.022*[#  21]
          +0.022*[#  25]+0.022*[#  26]+0.022*[#  74]+0.022*[#  75]+0.022*[#  79]
          +0.022*[#  80]
    |psi|^2 = 1.000
==== e(  24) =   -16.49413 eV ==== 
     psi = 0.102*[#  22]+0.102*[#  23]+0.102*[#  27]+0.102*[#  28]+0.102*[#  76]
          +0.102*[#  77]+0.102*[#  81]+0.102*[#  82]+0.022*[#  20]+0.022*[#  21]
          +0.022*[#  25]+0.022*[#  26]+0.022*[#  74]+0.022*[#  75]+0.022*[#  79]
          +0.022*[#  80]
    |psi|^2 = 1.000
==== e(  25) =   -16.48805 eV ==== 
     psi = 0.118*[#   1]+0.118*[#   6]+0.118*[#  91]+0.118*[#  96]+0.113*[#  37]
          +0.113*[#  42]+0.113*[#  55]+0.113*[#  60]+0.018*[#  19]+0.018*[#  24]
          +0.018*[#  73]+0.018*[#  78]
    |psi|^2 = 1.000
==== e(  26) =   -16.48805 eV ==== 
     psi = 0.118*[#   1]+0.118*[#   6]+0.118*[#  91]+0.118*[#  96]+0.113*[#  37]
          +0.113*[#  42]+0.113*[#  55]+0.113*[#  60]+0.018*[#  19]+0.018*[#  24]
          +0.018*[#  73]+0.018*[#  78]
    |psi|^2 = 1.000
==== e(  27) =   -16.48803 eV ==== 
     psi = 0.126*[#  37]+0.126*[#  42]+0.126*[#  55]+0.126*[#  60]+0.123*[#   1]
          +0.123*[#   6]+0.123*[#  91]+0.123*[#  96]
    |psi|^2 = 1.000
==== e(  28) =   -16.48803 eV ==== 
     psi = 0.126*[#  37]+0.126*[#  42]+0.126*[#  55]+0.126*[#  60]+0.123*[#   1]
          +0.123*[#   6]+0.123*[#  91]+0.123*[#  96]
    |psi|^2 = 1.000
==== e(  29) =   -16.48801 eV ==== 
     psi = 0.231*[#  19]+0.231*[#  24]+0.231*[#  73]+0.231*[#  78]+0.010*[#   1]
          +0.010*[#   6]+0.010*[#  91]+0.010*[#  96]+0.008*[#  37]+0.008*[#  42]
          +0.008*[#  55]+0.008*[#  60]
    |psi|^2 = 1.000
==== e(  30) =   -16.48801 eV ==== 
     psi = 0.231*[#  19]+0.231*[#  24]+0.231*[#  73]+0.231*[#  78]+0.010*[#   1]
          +0.010*[#   6]+0.010*[#  91]+0.010*[#  96]+0.008*[#  37]+0.008*[#  42]
          +0.008*[#  55]+0.008*[#  60]
    |psi|^2 = 1.000
==== e(  31) =   -16.48681 eV ==== 
     psi = 0.129*[#  37]+0.129*[#  42]+0.129*[#  55]+0.129*[#  60]+0.121*[#   1]
          +0.121*[#   6]+0.121*[#  91]+0.121*[#  96]
    |psi|^2 = 1.000
==== e(  32) =   -16.48681 eV ==== 
     psi = 0.129*[#  37]+0.129*[#  42]+0.129*[#  55]+0.129*[#  60]+0.121*[#   1]
          +0.121*[#   6]+0.121*[#  91]+0.121*[#  96]
    |psi|^2 = 1.000
==== e(  33) =   -16.48680 eV ==== 
     psi = 0.118*[#   1]+0.118*[#   6]+0.118*[#  91]+0.118*[#  96]+0.113*[#  37]
          +0.113*[#  42]+0.113*[#  55]+0.113*[#  60]+0.019*[#  19]+0.019*[#  24]
          +0.019*[#  73]+0.019*[#  78]
    |psi|^2 = 1.000
==== e(  34) =   -16.48680 eV ==== 
     psi = 0.118*[#   1]+0.118*[#   6]+0.118*[#  91]+0.118*[#  96]+0.113*[#  37]
          +0.113*[#  42]+0.113*[#  55]+0.113*[#  60]+0.019*[#  19]+0.019*[#  24]
          +0.019*[#  73]+0.019*[#  78]
    |psi|^2 = 1.000
==== e(  35) =   -16.48678 eV ==== 
     psi = 0.231*[#  19]+0.231*[#  24]+0.231*[#  73]+0.231*[#  78]+0.010*[#  37]
          +0.010*[#  42]+0.010*[#  55]+0.010*[#  60]+0.009*[#   1]+0.009*[#   6]
          +0.009*[#  91]+0.009*[#  96]
    |psi|^2 = 1.000
==== e(  36) =   -16.48678 eV ==== 
     psi = 0.231*[#  19]+0.231*[#  24]+0.231*[#  73]+0.231*[#  78]+0.010*[#  37]
          +0.010*[#  42]+0.010*[#  55]+0.010*[#  60]+0.009*[#   1]+0.009*[#   6]
          +0.009*[#  91]+0.009*[#  96]
    |psi|^2 = 1.000
==== e(  37) =   -16.48406 eV ==== 
     psi = 0.052*[#  38]+0.052*[#  39]+0.052*[#  43]+0.052*[#  44]+0.052*[#  56]
          +0.052*[#  57]+0.052*[#  61]+0.052*[#  62]+0.051*[#   2]+0.051*[#   3]
          +0.051*[#   7]+0.051*[#   8]+0.051*[#  92]+0.051*[#  93]+0.051*[#  97]
          +0.051*[#  98]+0.011*[#  40]+0.011*[#  41]+0.011*[#  45]+0.011*[#  46]
          +0.011*[#  58]+0.011*[#  59]+0.011*[#  63]+0.011*[#  64]+0.011*[#   4]
          +0.011*[#   5]+0.011*[#   9]+0.011*[#  10]+0.011*[#  94]+0.011*[#  95]
          +0.011*[#  99]+0.011*[# 100]
    |psi|^2 = 1.000
==== e(  38) =   -16.48406 eV ==== 
     psi = 0.052*[#  38]+0.052*[#  39]+0.052*[#  43]+0.052*[#  44]+0.052*[#  56]
          +0.052*[#  57]+0.052*[#  61]+0.052*[#  62]+0.051*[#   2]+0.051*[#   3]
          +0.051*[#   7]+0.051*[#   8]+0.051*[#  92]+0.051*[#  93]+0.051*[#  97]
          +0.051*[#  98]+0.011*[#  40]+0.011*[#  41]+0.011*[#  45]+0.011*[#  46]
          +0.011*[#  58]+0.011*[#  59]+0.011*[#  63]+0.011*[#  64]+0.011*[#   4]
          +0.011*[#   5]+0.011*[#   9]+0.011*[#  10]+0.011*[#  94]+0.011*[#  95]
          +0.011*[#  99]+0.011*[# 100]
    |psi|^2 = 1.000
==== e(  39) =   -16.48406 eV ==== 
     psi = 0.052*[#  38]+0.052*[#  39]+0.052*[#  43]+0.052*[#  44]+0.052*[#  56]
          +0.052*[#  57]+0.052*[#  61]+0.052*[#  62]+0.051*[#   2]+0.051*[#   3]
          +0.051*[#   7]+0.051*[#   8]+0.051*[#  92]+0.051*[#  93]+0.051*[#  97]
          +0.051*[#  98]+0.011*[#  40]+0.011*[#  41]+0.011*[#  45]+0.011*[#  46]
          +0.011*[#  58]+0.011*[#  59]+0.011*[#  63]+0.011*[#  64]+0.011*[#   4]
          +0.011*[#   5]+0.011*[#   9]+0.011*[#  10]+0.011*[#  94]+0.011*[#  95]
          +0.011*[#  99]+0.011*[# 100]
    |psi|^2 = 1.000
==== e(  40) =   -16.48406 eV ==== 
     psi = 0.052*[#  38]+0.052*[#  39]+0.052*[#  43]+0.052*[#  44]+0.052*[#  56]
          +0.052*[#  57]+0.052*[#  61]+0.052*[#  62]+0.051*[#   2]+0.051*[#   3]
          +0.051*[#   7]+0.051*[#   8]+0.051*[#  92]+0.051*[#  93]+0.051*[#  97]
          +0.051*[#  98]+0.011*[#  40]+0.011*[#  41]+0.011*[#  45]+0.011*[#  46]
          +0.011*[#  58]+0.011*[#  59]+0.011*[#  63]+0.011*[#  64]+0.011*[#   4]
          +0.011*[#   5]+0.011*[#   9]+0.011*[#  10]+0.011*[#  94]+0.011*[#  95]
          +0.011*[#  99]+0.011*[# 100]
    |psi|^2 = 1.000
==== e(  41) =   -16.48405 eV ==== 
     psi = 0.045*[#   2]+0.045*[#   3]+0.045*[#   7]+0.045*[#   8]+0.045*[#  92]
          +0.045*[#  93]+0.045*[#  97]+0.045*[#  98]+0.042*[#  38]+0.042*[#  39]
          +0.042*[#  43]+0.042*[#  44]+0.042*[#  56]+0.042*[#  57]+0.042*[#  61]
          +0.042*[#  62]+0.016*[#  20]+0.016*[#  21]+0.016*[#  25]+0.016*[#  26]
          +0.016*[#  74]+0.016*[#  75]+0.016*[#  79]+0.016*[#  80]+0.010*[#   4]
          +0.010*[#   5]+0.010*[#   9]+0.010*[#  10]+0.010*[#  94]+0.010*[#  95]
          +0.010*[#  99]+0.010*[# 100]+0.009*[#  40]+0.009*[#  41]+0.009*[#  45]
          +0.009*[#  46]+0.009*[#  58]+0.009*[#  59]+0.009*[#  63]+0.009*[#  64]
          +0.003*[#  22]+0.003*[#  23]+0.003*[#  27]+0.003*[#  28]+0.003*[#  76]
          +0.003*[#  77]+0.003*[#  81]+0.003*[#  82]
    |psi|^2 = 1.000
==== e(  42) =   -16.48405 eV ==== 
     psi = 0.045*[#   2]+0.045*[#   3]+0.045*[#   7]+0.045*[#   8]+0.045*[#  92]
          +0.045*[#  93]+0.045*[#  97]+0.045*[#  98]+0.042*[#  38]+0.042*[#  39]
          +0.042*[#  43]+0.042*[#  44]+0.042*[#  56]+0.042*[#  57]+0.042*[#  61]
          +0.042*[#  62]+0.016*[#  20]+0.016*[#  21]+0.016*[#  25]+0.016*[#  26]
          +0.016*[#  74]+0.016*[#  75]+0.016*[#  79]+0.016*[#  80]+0.010*[#   4]
          +0.010*[#   5]+0.010*[#   9]+0.010*[#  10]+0.010*[#  94]+0.010*[#  95]
          +0.010*[#  99]+0.010*[# 100]+0.009*[#  40]+0.009*[#  41]+0.009*[#  45]
          +0.009*[#  46]+0.009*[#  58]+0.009*[#  59]+0.009*[#  63]+0.009*[#  64]
          +0.003*[#  22]+0.003*[#  23]+0.003*[#  27]+0.003*[#  28]+0.003*[#  76]
          +0.003*[#  77]+0.003*[#  81]+0.003*[#  82]
    |psi|^2 = 1.000
==== e(  43) =   -16.48405 eV ==== 
     psi = 0.045*[#   2]+0.045*[#   3]+0.045*[#   7]+0.045*[#   8]+0.045*[#  92]
          +0.045*[#  93]+0.045*[#  97]+0.045*[#  98]+0.042*[#  38]+0.042*[#  39]
          +0.042*[#  43]+0.042*[#  44]+0.042*[#  56]+0.042*[#  57]+0.042*[#  61]
          +0.042*[#  62]+0.016*[#  20]+0.016*[#  21]+0.016*[#  25]+0.016*[#  26]
          +0.016*[#  74]+0.016*[#  75]+0.016*[#  79]+0.016*[#  80]+0.010*[#   4]
          +0.010*[#   5]+0.010*[#   9]+0.010*[#  10]+0.010*[#  94]+0.010*[#  95]
          +0.010*[#  99]+0.010*[# 100]+0.009*[#  40]+0.009*[#  41]+0.009*[#  45]
          +0.009*[#  46]+0.009*[#  58]+0.009*[#  59]+0.009*[#  63]+0.009*[#  64]
          +0.003*[#  22]+0.003*[#  23]+0.003*[#  27]+0.003*[#  28]+0.003*[#  76]
          +0.003*[#  77]+0.003*[#  81]+0.003*[#  82]
    |psi|^2 = 1.000
==== e(  44) =   -16.48405 eV ==== 
     psi = 0.045*[#   2]+0.045*[#   3]+0.045*[#   7]+0.045*[#   8]+0.045*[#  92]
          +0.045*[#  93]+0.045*[#  97]+0.045*[#  98]+0.042*[#  38]+0.042*[#  39]
          +0.042*[#  43]+0.042*[#  44]+0.042*[#  56]+0.042*[#  57]+0.042*[#  61]
          +0.042*[#  62]+0.016*[#  20]+0.016*[#  21]+0.016*[#  25]+0.016*[#  26]
          +0.016*[#  74]+0.016*[#  75]+0.016*[#  79]+0.016*[#  80]+0.010*[#   4]
          +0.010*[#   5]+0.010*[#   9]+0.010*[#  10]+0.010*[#  94]+0.010*[#  95]
          +0.010*[#  99]+0.010*[# 100]+0.009*[#  40]+0.009*[#  41]+0.009*[#  45]
          +0.009*[#  46]+0.009*[#  58]+0.009*[#  59]+0.009*[#  63]+0.009*[#  64]
          +0.003*[#  22]+0.003*[#  23]+0.003*[#  27]+0.003*[#  28]+0.003*[#  76]
          +0.003*[#  77]+0.003*[#  81]+0.003*[#  82]
    |psi|^2 = 1.000
==== e(  45) =   -16.48402 eV ==== 
     psi = 0.087*[#  20]+0.087*[#  21]+0.087*[#  25]+0.087*[#  26]+0.087*[#  74]
          +0.087*[#  75]+0.087*[#  79]+0.087*[#  80]+0.019*[#  22]+0.019*[#  23]
          +0.019*[#  27]+0.019*[#  28]+0.019*[#  76]+0.019*[#  77]+0.019*[#  81]
          +0.019*[#  82]+0.008*[#  38]+0.008*[#  39]+0.008*[#  43]+0.008*[#  44]
          +0.008*[#  56]+0.008*[#  57]+0.008*[#  61]+0.008*[#  62]+0.008*[#   2]
          +0.008*[#   3]+0.008*[#   7]+0.008*[#   8]+0.008*[#  92]+0.008*[#  93]
          +0.008*[#  97]+0.008*[#  98]+0.002*[#  40]+0.002*[#  41]+0.002*[#  45]
          +0.002*[#  46]+0.002*[#  58]+0.002*[#  59]+0.002*[#  63]+0.002*[#  64]
          +0.002*[#   4]+0.002*[#   5]+0.002*[#   9]+0.002*[#  10]+0.002*[#  94]
          +0.002*[#  95]+0.002*[#  99]+0.002*[# 100]
    |psi|^2 = 1.000
==== e(  46) =   -16.48402 eV ==== 
     psi = 0.087*[#  20]+0.087*[#  21]+0.087*[#  25]+0.087*[#  26]+0.087*[#  74]
          +0.087*[#  75]+0.087*[#  79]+0.087*[#  80]+0.019*[#  22]+0.019*[#  23]
          +0.019*[#  27]+0.019*[#  28]+0.019*[#  76]+0.019*[#  77]+0.019*[#  81]
          +0.019*[#  82]+0.008*[#  38]+0.008*[#  39]+0.008*[#  43]+0.008*[#  44]
          +0.008*[#  56]+0.008*[#  57]+0.008*[#  61]+0.008*[#  62]+0.008*[#   2]
          +0.008*[#   3]+0.008*[#   7]+0.008*[#   8]+0.008*[#  92]+0.008*[#  93]
          +0.008*[#  97]+0.008*[#  98]+0.002*[#  40]+0.002*[#  41]+0.002*[#  45]
          +0.002*[#  46]+0.002*[#  58]+0.002*[#  59]+0.002*[#  63]+0.002*[#  64]
          +0.002*[#   4]+0.002*[#   5]+0.002*[#   9]+0.002*[#  10]+0.002*[#  94]
          +0.002*[#  95]+0.002*[#  99]+0.002*[# 100]
    |psi|^2 = 1.000
==== e(  47) =   -16.48402 eV ==== 
     psi = 0.087*[#  20]+0.087*[#  21]+0.087*[#  25]+0.087*[#  26]+0.087*[#  74]
          +0.087*[#  75]+0.087*[#  79]+0.087*[#  80]+0.019*[#  22]+0.019*[#  23]
          +0.019*[#  27]+0.019*[#  28]+0.019*[#  76]+0.019*[#  77]+0.019*[#  81]
          +0.019*[#  82]+0.008*[#  38]+0.008*[#  39]+0.008*[#  43]+0.008*[#  44]
          +0.008*[#  56]+0.008*[#  57]+0.008*[#  61]+0.008*[#  62]+0.008*[#   2]
          +0.008*[#   3]+0.008*[#   7]+0.008*[#   8]+0.008*[#  92]+0.008*[#  93]
          +0.008*[#  97]+0.008*[#  98]+0.002*[#  40]+0.002*[#  41]+0.002*[#  45]
          +0.002*[#  46]+0.002*[#  58]+0.002*[#  59]+0.002*[#  63]+0.002*[#  64]
          +0.002*[#   4]+0.002*[#   5]+0.002*[#   9]+0.002*[#  10]+0.002*[#  94]
          +0.002*[#  95]+0.002*[#  99]+0.002*[# 100]
    |psi|^2 = 1.000
==== e(  48) =   -16.48402 eV ==== 
     psi = 0.087*[#  20]+0.087*[#  21]+0.087*[#  25]+0.087*[#  26]+0.087*[#  74]
          +0.087*[#  75]+0.087*[#  79]+0.087*[#  80]+0.019*[#  22]+0.019*[#  23]
          +0.019*[#  27]+0.019*[#  28]+0.019*[#  76]+0.019*[#  77]+0.019*[#  81]
          +0.019*[#  82]+0.008*[#  38]+0.008*[#  39]+0.008*[#  43]+0.008*[#  44]
          +0.008*[#  56]+0.008*[#  57]+0.008*[#  61]+0.008*[#  62]+0.008*[#   2]
          +0.008*[#   3]+0.008*[#   7]+0.008*[#   8]+0.008*[#  92]+0.008*[#  93]
          +0.008*[#  97]+0.008*[#  98]+0.002*[#  40]+0.002*[#  41]+0.002*[#  45]
          +0.002*[#  46]+0.002*[#  58]+0.002*[#  59]+0.002*[#  63]+0.002*[#  64]
          +0.002*[#   4]+0.002*[#   5]+0.002*[#   9]+0.002*[#  10]+0.002*[#  94]
          +0.002*[#  95]+0.002*[#  99]+0.002*[# 100]
    |psi|^2 = 1.000
==== e(  49) =   -16.48257 eV ==== 
     psi = 0.052*[#  38]+0.052*[#  39]+0.052*[#  43]+0.052*[#  44]+0.052*[#  56]
          +0.052*[#  57]+0.052*[#  61]+0.052*[#  62]+0.049*[#   2]+0.049*[#   3]
          +0.049*[#   7]+0.049*[#   8]+0.049*[#  92]+0.049*[#  93]+0.049*[#  97]
          +0.049*[#  98]+0.012*[#  40]+0.012*[#  41]+0.012*[#  45]+0.012*[#  46]
          +0.012*[#  58]+0.012*[#  59]+0.012*[#  63]+0.012*[#  64]+0.012*[#   4]
          +0.012*[#   5]+0.012*[#   9]+0.012*[#  10]+0.012*[#  94]+0.012*[#  95]
          +0.012*[#  99]+0.012*[# 100]
    |psi|^2 = 1.000
==== e(  50) =   -16.48257 eV ==== 
     psi = 0.052*[#  38]+0.052*[#  39]+0.052*[#  43]+0.052*[#  44]+0.052*[#  56]
          +0.052*[#  57]+0.052*[#  61]+0.052*[#  62]+0.049*[#   2]+0.049*[#   3]
          +0.049*[#   7]+0.049*[#   8]+0.049*[#  92]+0.049*[#  93]+0.049*[#  97]
          +0.049*[#  98]+0.012*[#  40]+0.012*[#  41]+0.012*[#  45]+0.012*[#  46]
          +0.012*[#  58]+0.012*[#  59]+0.012*[#  63]+0.012*[#  64]+0.012*[#   4]
          +0.012*[#   5]+0.012*[#   9]+0.012*[#  10]+0.012*[#  94]+0.012*[#  95]
          +0.012*[#  99]+0.012*[# 100]
    |psi|^2 = 1.000
==== e(  51) =   -16.48257 eV ==== 
     psi = 0.052*[#  38]+0.052*[#  39]+0.052*[#  43]+0.052*[#  44]+0.052*[#  56]
          +0.052*[#  57]+0.052*[#  61]+0.052*[#  62]+0.049*[#   2]+0.049*[#   3]
          +0.049*[#   7]+0.049*[#   8]+0.049*[#  92]+0.049*[#  93]+0.049*[#  97]
          +0.049*[#  98]+0.012*[#  40]+0.012*[#  41]+0.012*[#  45]+0.012*[#  46]
          +0.012*[#  58]+0.012*[#  59]+0.012*[#  63]+0.012*[#  64]+0.012*[#   4]
          +0.012*[#   5]+0.012*[#   9]+0.012*[#  10]+0.012*[#  94]+0.012*[#  95]
          +0.012*[#  99]+0.012*[# 100]
    |psi|^2 = 1.000
==== e(  52) =   -16.48257 eV ==== 
     psi = 0.052*[#  38]+0.052*[#  39]+0.052*[#  43]+0.052*[#  44]+0.052*[#  56]
          +0.052*[#  57]+0.052*[#  61]+0.052*[#  62]+0.049*[#   2]+0.049*[#   3]
          +0.049*[#   7]+0.049*[#   8]+0.049*[#  92]+0.049*[#  93]+0.049*[#  97]
          +0.049*[#  98]+0.012*[#  40]+0.012*[#  41]+0.012*[#  45]+0.012*[#  46]
          +0.012*[#  58]+0.012*[#  59]+0.012*[#  63]+0.012*[#  64]+0.012*[#   4]
          +0.012*[#   5]+0.012*[#   9]+0.012*[#  10]+0.012*[#  94]+0.012*[#  95]
          +0.012*[#  99]+0.012*[# 100]
    |psi|^2 = 1.000
==== e(  53) =   -16.48256 eV ==== 
     psi = 0.050*[#   2]+0.050*[#   3]+0.050*[#   7]+0.050*[#   8]+0.050*[#  92]
          +0.050*[#  93]+0.050*[#  97]+0.050*[#  98]+0.048*[#  38]+0.048*[#  39]
          +0.048*[#  43]+0.048*[#  44]+0.048*[#  56]+0.048*[#  57]+0.048*[#  61]
          +0.048*[#  62]+0.012*[#   4]+0.012*[#   5]+0.012*[#   9]+0.012*[#  10]
          +0.012*[#  94]+0.012*[#  95]+0.012*[#  99]+0.012*[# 100]+0.011*[#  40]
          +0.011*[#  41]+0.011*[#  45]+0.011*[#  46]+0.011*[#  58]+0.011*[#  59]
          +0.011*[#  63]+0.011*[#  64]+0.003*[#  20]+0.003*[#  21]+0.003*[#  25]
          +0.003*[#  26]+0.003*[#  74]+0.003*[#  75]+0.003*[#  79]+0.003*[#  80]
          
    |psi|^2 = 1.000
==== e(  54) =   -16.48256 eV ==== 
     psi = 0.050*[#   2]+0.050*[#   3]+0.050*[#   7]+0.050*[#   8]+0.050*[#  92]
          +0.050*[#  93]+0.050*[#  97]+0.050*[#  98]+0.048*[#  38]+0.048*[#  39]
          +0.048*[#  43]+0.048*[#  44]+0.048*[#  56]+0.048*[#  57]+0.048*[#  61]
          +0.048*[#  62]+0.012*[#   4]+0.012*[#   5]+0.012*[#   9]+0.012*[#  10]
          +0.012*[#  94]+0.012*[#  95]+0.012*[#  99]+0.012*[# 100]+0.011*[#  40]
          +0.011*[#  41]+0.011*[#  45]+0.011*[#  46]+0.011*[#  58]+0.011*[#  59]
          +0.011*[#  63]+0.011*[#  64]+0.003*[#  20]+0.003*[#  21]+0.003*[#  25]
          +0.003*[#  26]+0.003*[#  74]+0.003*[#  75]+0.003*[#  79]+0.003*[#  80]
          
    |psi|^2 = 1.000
==== e(  55) =   -16.48256 eV ==== 
     psi = 0.050*[#   2]+0.050*[#   3]+0.050*[#   7]+0.050*[#   8]+0.050*[#  92]
          +0.050*[#  93]+0.050*[#  97]+0.050*[#  98]+0.048*[#  38]+0.048*[#  39]
          +0.048*[#  43]+0.048*[#  44]+0.048*[#  56]+0.048*[#  57]+0.048*[#  61]
          +0.048*[#  62]+0.012*[#   4]+0.012*[#   5]+0.012*[#   9]+0.012*[#  10]
          +0.012*[#  94]+0.012*[#  95]+0.012*[#  99]+0.012*[# 100]+0.011*[#  40]
          +0.011*[#  41]+0.011*[#  45]+0.011*[#  46]+0.011*[#  58]+0.011*[#  59]
          +0.011*[#  63]+0.011*[#  64]+0.003*[#  20]+0.003*[#  21]+0.003*[#  25]
          +0.003*[#  26]+0.003*[#  74]+0.003*[#  75]+0.003*[#  79]+0.003*[#  80]
          
    |psi|^2 = 1.000
==== e(  56) =   -16.48256 eV ==== 
     psi = 0.050*[#   2]+0.050*[#   3]+0.050*[#   7]+0.050*[#   8]+0.050*[#  92]
          +0.050*[#  93]+0.050*[#  97]+0.050*[#  98]+0.048*[#  38]+0.048*[#  39]
          +0.048*[#  43]+0.048*[#  44]+0.048*[#  56]+0.048*[#  57]+0.048*[#  61]
          +0.048*[#  62]+0.012*[#   4]+0.012*[#   5]+0.012*[#   9]+0.012*[#  10]
          +0.012*[#  94]+0.012*[#  95]+0.012*[#  99]+0.012*[# 100]+0.011*[#  40]
          +0.011*[#  41]+0.011*[#  45]+0.011*[#  46]+0.011*[#  58]+0.011*[#  59]
          +0.011*[#  63]+0.011*[#  64]+0.003*[#  20]+0.003*[#  21]+0.003*[#  25]
          +0.003*[#  26]+0.003*[#  74]+0.003*[#  75]+0.003*[#  79]+0.003*[#  80]
          
    |psi|^2 = 1.000
==== e(  57) =   -16.48254 eV ==== 
     psi = 0.098*[#  20]+0.098*[#  21]+0.098*[#  25]+0.098*[#  26]+0.098*[#  74]
          +0.098*[#  75]+0.098*[#  79]+0.098*[#  80]+0.023*[#  22]+0.023*[#  23]
          +0.023*[#  27]+0.023*[#  28]+0.023*[#  76]+0.023*[#  77]+0.023*[#  81]
          +0.023*[#  82]+0.002*[#  38]+0.002*[#  39]+0.002*[#  43]+0.002*[#  44]
          +0.002*[#  56]+0.002*[#  57]+0.002*[#  61]+0.002*[#  62]+0.001*[#   2]
          +0.001*[#   3]+0.001*[#   7]+0.001*[#   8]+0.001*[#  92]+0.001*[#  93]
          +0.001*[#  97]+0.001*[#  98]
    |psi|^2 = 1.000
==== e(  58) =   -16.48254 eV ==== 
     psi = 0.098*[#  20]+0.098*[#  21]+0.098*[#  25]+0.098*[#  26]+0.098*[#  74]
          +0.098*[#  75]+0.098*[#  79]+0.098*[#  80]+0.023*[#  22]+0.023*[#  23]
          +0.023*[#  27]+0.023*[#  28]+0.023*[#  76]+0.023*[#  77]+0.023*[#  81]
          +0.023*[#  82]+0.002*[#  38]+0.002*[#  39]+0.002*[#  43]+0.002*[#  44]
          +0.002*[#  56]+0.002*[#  57]+0.002*[#  61]+0.002*[#  62]+0.001*[#   2]
          +0.001*[#   3]+0.001*[#   7]+0.001*[#   8]+0.001*[#  92]+0.001*[#  93]
          +0.001*[#  97]+0.001*[#  98]
    |psi|^2 = 1.000
==== e(  59) =   -16.48254 eV ==== 
     psi = 0.098*[#  20]+0.098*[#  21]+0.098*[#  25]+0.098*[#  26]+0.098*[#  74]
          +0.098*[#  75]+0.098*[#  79]+0.098*[#  80]+0.023*[#  22]+0.023*[#  23]
          +0.023*[#  27]+0.023*[#  28]+0.023*[#  76]+0.023*[#  77]+0.023*[#  81]
          +0.023*[#  82]+0.002*[#  38]+0.002*[#  39]+0.002*[#  43]+0.002*[#  44]
          +0.002*[#  56]+0.002*[#  57]+0.002*[#  61]+0.002*[#  62]+0.001*[#   2]
          +0.001*[#   3]+0.001*[#   7]+0.001*[#   8]+0.001*[#  92]+0.001*[#  93]
          +0.001*[#  97]+0.001*[#  98]
    |psi|^2 = 1.000
==== e(  60) =   -16.48254 eV ==== 
     psi = 0.098*[#  20]+0.098*[#  21]+0.098*[#  25]+0.098*[#  26]+0.098*[#  74]
          +0.098*[#  75]+0.098*[#  79]+0.098*[#  80]+0.023*[#  22]+0.023*[#  23]
          +0.023*[#  27]+0.023*[#  28]+0.023*[#  76]+0.023*[#  77]+0.023*[#  81]
          +0.023*[#  82]+0.002*[#  38]+0.002*[#  39]+0.002*[#  43]+0.002*[#  44]
          +0.002*[#  56]+0.002*[#  57]+0.002*[#  61]+0.002*[#  62]+0.001*[#   2]
          +0.001*[#   3]+0.001*[#   7]+0.001*[#   8]+0.001*[#  92]+0.001*[#  93]
          +0.001*[#  97]+0.001*[#  98]
    |psi|^2 = 1.000
==== e(  61) =    -6.53171 eV ==== 
     psi = 0.041*[#  11]+0.041*[#  12]+0.041*[#  29]+0.041*[#  30]+0.041*[#  47]
          +0.041*[#  48]+0.041*[#  65]+0.041*[#  66]+0.041*[#  83]+0.041*[#  84]
          +0.041*[# 101]+0.041*[# 102]+0.035*[# 117]+0.035*[# 118]+0.035*[# 141]
          +0.035*[# 142]+0.035*[# 165]+0.035*[# 166]+0.023*[# 109]+0.023*[# 110]
          +0.023*[# 125]+0.023*[# 126]+0.023*[# 133]+0.023*[# 134]+0.023*[# 149]
          +0.023*[# 150]+0.023*[# 157]+0.023*[# 158]+0.023*[# 173]+0.023*[# 174]
          +0.002*[# 111]+0.002*[# 114]+0.002*[# 127]+0.002*[# 130]+0.002*[# 135]
          +0.002*[# 138]+0.002*[# 151]+0.002*[# 154]+0.002*[# 159]+0.002*[# 162]
          +0.002*[# 175]+0.002*[# 178]
    |psi|^2 = 0.999
==== e(  62) =    -6.53171 eV ==== 
     psi = 0.041*[#  11]+0.041*[#  12]+0.041*[#  29]+0.041*[#  30]+0.041*[#  47]
          +0.041*[#  48]+0.041*[#  65]+0.041*[#  66]+0.041*[#  83]+0.041*[#  84]
          +0.041*[# 101]+0.041*[# 102]+0.035*[# 117]+0.035*[# 118]+0.035*[# 141]
          +0.035*[# 142]+0.035*[# 165]+0.035*[# 166]+0.023*[# 109]+0.023*[# 110]
          +0.023*[# 125]+0.023*[# 126]+0.023*[# 133]+0.023*[# 134]+0.023*[# 149]
          +0.023*[# 150]+0.023*[# 157]+0.023*[# 158]+0.023*[# 173]+0.023*[# 174]
          +0.002*[# 111]+0.002*[# 114]+0.002*[# 127]+0.002*[# 130]+0.002*[# 135]
          +0.002*[# 138]+0.002*[# 151]+0.002*[# 154]+0.002*[# 159]+0.002*[# 162]
          +0.002*[# 175]+0.002*[# 178]
    |psi|^2 = 0.999
==== e(  63) =    -6.49587 eV ==== 
     psi = 0.066*[#  11]+0.066*[#  12]+0.066*[# 101]+0.066*[# 102]+0.057*[#  47]
          +0.057*[#  48]+0.057*[#  65]+0.057*[#  66]+0.055*[# 141]+0.055*[# 142]
          +0.055*[# 165]+0.055*[# 166]+0.034*[# 125]+0.034*[# 126]+0.034*[# 157]
          +0.034*[# 158]+0.025*[# 133]+0.025*[# 134]+0.025*[# 149]+0.025*[# 150]
          +0.006*[# 135]+0.006*[# 138]+0.006*[# 151]+0.006*[# 154]+0.005*[# 127]
          +0.005*[# 130]+0.005*[# 159]+0.005*[# 162]
    |psi|^2 = 0.999
==== e(  64) =    -6.49587 eV ==== 
     psi = 0.066*[#  11]+0.066*[#  12]+0.066*[# 101]+0.066*[# 102]+0.057*[#  47]
          +0.057*[#  48]+0.057*[#  65]+0.057*[#  66]+0.055*[# 141]+0.055*[# 142]
          +0.055*[# 165]+0.055*[# 166]+0.034*[# 125]+0.034*[# 126]+0.034*[# 157]
          +0.034*[# 158]+0.025*[# 133]+0.025*[# 134]+0.025*[# 149]+0.025*[# 150]
          +0.006*[# 135]+0.006*[# 138]+0.006*[# 151]+0.006*[# 154]+0.005*[# 127]
          +0.005*[# 130]+0.005*[# 159]+0.005*[# 162]
    |psi|^2 = 0.999
==== e(  65) =    -6.49586 eV ==== 
     psi = 0.082*[#  29]+0.082*[#  30]+0.082*[#  83]+0.082*[#  84]+0.074*[# 117]
          +0.074*[# 118]+0.039*[# 109]+0.039*[# 110]+0.039*[# 173]+0.039*[# 174]
          +0.025*[#  47]+0.025*[#  48]+0.025*[#  65]+0.025*[#  66]+0.018*[# 141]
          +0.018*[# 142]+0.018*[# 165]+0.018*[# 166]+0.016*[#  11]+0.016*[#  12]
          +0.016*[# 101]+0.016*[# 102]+0.015*[# 133]+0.015*[# 134]+0.015*[# 149]
          +0.015*[# 150]+0.007*[# 111]+0.007*[# 114]+0.007*[# 175]+0.007*[# 178]
          +0.006*[# 125]+0.006*[# 126]+0.006*[# 157]+0.006*[# 158]+0.003*[# 127]
          +0.003*[# 130]+0.003*[# 159]+0.003*[# 162]+0.001*[# 135]+0.001*[# 138]
          +0.001*[# 151]+0.001*[# 154]
    |psi|^2 = 0.999
==== e(  66) =    -6.49586 eV ==== 
     psi = 0.082*[#  29]+0.082*[#  30]+0.082*[#  83]+0.082*[#  84]+0.074*[# 117]
          +0.074*[# 118]+0.039*[# 109]+0.039*[# 110]+0.039*[# 173]+0.039*[# 174]
          +0.025*[#  47]+0.025*[#  48]+0.025*[#  65]+0.025*[#  66]+0.018*[# 141]
          +0.018*[# 142]+0.018*[# 165]+0.018*[# 166]+0.016*[#  11]+0.016*[#  12]
          +0.016*[# 101]+0.016*[# 102]+0.015*[# 133]+0.015*[# 134]+0.015*[# 149]
          +0.015*[# 150]+0.007*[# 111]+0.007*[# 114]+0.007*[# 175]+0.007*[# 178]
          +0.006*[# 125]+0.006*[# 126]+0.006*[# 157]+0.006*[# 158]+0.003*[# 127]
          +0.003*[# 130]+0.003*[# 159]+0.003*[# 162]+0.001*[# 135]+0.001*[# 138]
          +0.001*[# 151]+0.001*[# 154]
    |psi|^2 = 0.999
==== e(  67) =    -6.06552 eV ==== 
     psi = 0.064*[#  11]+0.064*[#  12]+0.064*[# 101]+0.064*[# 102]+0.053*[#  47]
          +0.053*[#  48]+0.053*[#  65]+0.053*[#  66]+0.053*[# 125]+0.053*[# 126]
          +0.053*[# 133]+0.053*[# 134]+0.053*[# 149]+0.053*[# 150]+0.053*[# 157]
          +0.053*[# 158]+0.013*[# 143]+0.013*[# 146]+0.013*[# 167]+0.013*[# 170]
          +0.004*[# 127]+0.004*[# 130]+0.004*[# 159]+0.004*[# 162]+0.004*[#  49]
          +0.004*[#  52]+0.004*[#  67]+0.004*[#  70]+0.003*[#  13]+0.003*[#  16]
          +0.003*[# 103]+0.003*[# 106]+0.002*[# 135]+0.002*[# 138]+0.002*[# 151]
          +0.002*[# 154]
    |psi|^2 = 1.000
==== e(  68) =    -6.06552 eV ==== 
     psi = 0.064*[#  11]+0.064*[#  12]+0.064*[# 101]+0.064*[# 102]+0.053*[#  47]
          +0.053*[#  48]+0.053*[#  65]+0.053*[#  66]+0.053*[# 125]+0.053*[# 126]
          +0.053*[# 133]+0.053*[# 134]+0.053*[# 149]+0.053*[# 150]+0.053*[# 157]
          +0.053*[# 158]+0.013*[# 143]+0.013*[# 146]+0.013*[# 167]+0.013*[# 170]
          +0.004*[# 127]+0.004*[# 130]+0.004*[# 159]+0.004*[# 162]+0.004*[#  49]
          +0.004*[#  52]+0.004*[#  67]+0.004*[#  70]+0.003*[#  13]+0.003*[#  16]
          +0.003*[# 103]+0.003*[# 106]+0.002*[# 135]+0.002*[# 138]+0.002*[# 151]
          +0.002*[# 154]
    |psi|^2 = 1.000
==== e(  69) =    -6.06551 eV ==== 
     psi = 0.078*[#  29]+0.078*[#  30]+0.078*[#  83]+0.078*[#  84]+0.070*[# 109]
          +0.070*[# 110]+0.070*[# 173]+0.070*[# 174]+0.025*[#  47]+0.025*[#  48]
          +0.025*[#  65]+0.025*[#  66]+0.018*[# 119]+0.018*[# 122]+0.018*[# 125]
          +0.018*[# 126]+0.018*[# 133]+0.018*[# 134]+0.018*[# 149]+0.018*[# 150]
          +0.018*[# 157]+0.018*[# 158]+0.014*[#  11]+0.014*[#  12]+0.014*[# 101]
          +0.014*[# 102]+0.005*[#  31]+0.005*[#  34]+0.005*[#  85]+0.005*[#  88]
          +0.004*[# 143]+0.004*[# 146]+0.004*[# 167]+0.004*[# 170]+0.004*[# 111]
          +0.004*[# 114]+0.004*[# 175]+0.004*[# 178]+0.003*[# 135]+0.003*[# 138]
          +0.003*[# 151]+0.003*[# 154]+0.002*[#  13]+0.002*[#  16]+0.002*[# 103]
          +0.002*[# 106]
    |psi|^2 = 1.000
==== e(  70) =    -6.06551 eV ==== 
     psi = 0.078*[#  29]+0.078*[#  30]+0.078*[#  83]+0.078*[#  84]+0.070*[# 109]
          +0.070*[# 110]+0.070*[# 173]+0.070*[# 174]+0.025*[#  47]+0.025*[#  48]
          +0.025*[#  65]+0.025*[#  66]+0.018*[# 119]+0.018*[# 122]+0.018*[# 125]
          +0.018*[# 126]+0.018*[# 133]+0.018*[# 134]+0.018*[# 149]+0.018*[# 150]
          +0.018*[# 157]+0.018*[# 158]+0.014*[#  11]+0.014*[#  12]+0.014*[# 101]
          +0.014*[# 102]+0.005*[#  31]+0.005*[#  34]+0.005*[#  85]+0.005*[#  88]
          +0.004*[# 143]+0.004*[# 146]+0.004*[# 167]+0.004*[# 170]+0.004*[# 111]
          +0.004*[# 114]+0.004*[# 175]+0.004*[# 178]+0.003*[# 135]+0.003*[# 138]
          +0.003*[# 151]+0.003*[# 154]+0.002*[#  13]+0.002*[#  16]+0.002*[# 103]
          +0.002*[# 106]
    |psi|^2 = 1.000
==== e(  71) =    -5.98929 eV ==== 
     psi = 0.041*[#  11]+0.041*[#  12]+0.041*[#  29]+0.041*[#  30]+0.041*[#  47]
          +0.041*[#  48]+0.041*[#  65]+0.041*[#  66]+0.041*[#  83]+0.041*[#  84]
          +0.041*[# 101]+0.041*[# 102]+0.031*[# 109]+0.031*[# 110]+0.031*[# 125]
          +0.031*[# 126]+0.031*[# 133]+0.031*[# 134]+0.031*[# 149]+0.031*[# 150]
          +0.031*[# 157]+0.031*[# 158]+0.031*[# 173]+0.031*[# 174]+0.009*[# 119]
          +0.009*[# 122]+0.009*[# 143]+0.009*[# 146]+0.009*[# 167]+0.009*[# 170]
          +0.005*[# 111]+0.005*[# 114]+0.005*[# 127]+0.005*[# 130]+0.005*[# 135]
          +0.005*[# 138]+0.005*[# 151]+0.005*[# 154]+0.005*[# 159]+0.005*[# 162]
          +0.005*[# 175]+0.005*[# 178]+0.002*[#  13]+0.002*[#  16]+0.002*[#  31]
          +0.002*[#  34]+0.002*[#  49]+0.002*[#  52]+0.002*[#  67]+0.002*[#  70]
          +0.002*[#  85]+0.002*[#  88]+0.002*[# 103]+0.002*[# 106]
    |psi|^2 = 1.000
==== e(  72) =    -5.98929 eV ==== 
     psi = 0.041*[#  11]+0.041*[#  12]+0.041*[#  29]+0.041*[#  30]+0.041*[#  47]
          +0.041*[#  48]+0.041*[#  65]+0.041*[#  66]+0.041*[#  83]+0.041*[#  84]
          +0.041*[# 101]+0.041*[# 102]+0.031*[# 109]+0.031*[# 110]+0.031*[# 125]
          +0.031*[# 126]+0.031*[# 133]+0.031*[# 134]+0.031*[# 149]+0.031*[# 150]
          +0.031*[# 157]+0.031*[# 158]+0.031*[# 173]+0.031*[# 174]+0.009*[# 119]
          +0.009*[# 122]+0.009*[# 143]+0.009*[# 146]+0.009*[# 167]+0.009*[# 170]
          +0.005*[# 111]+0.005*[# 114]+0.005*[# 127]+0.005*[# 130]+0.005*[# 135]
          +0.005*[# 138]+0.005*[# 151]+0.005*[# 154]+0.005*[# 159]+0.005*[# 162]
          +0.005*[# 175]+0.005*[# 178]+0.002*[#  13]+0.002*[#  16]+0.002*[#  31]
          +0.002*[#  34]+0.002*[#  49]+0.002*[#  52]+0.002*[#  67]+0.002*[#  70]
          +0.002*[#  85]+0.002*[#  88]+0.002*[# 103]+0.002*[# 106]
    |psi|^2 = 1.000
==== e(  73) =    -4.44878 eV ==== 
     psi = 0.071*[# 117]+0.071*[# 118]+0.071*[# 141]+0.071*[# 142]+0.071*[# 165]
          +0.071*[# 166]+0.034*[# 109]+0.034*[# 110]+0.034*[# 125]+0.034*[# 126]
          +0.034*[# 133]+0.034*[# 134]+0.034*[# 149]+0.034*[# 150]+0.034*[# 157]
          +0.034*[# 158]+0.034*[# 173]+0.034*[# 174]+0.013*[#  13]+0.013*[#  16]
          +0.013*[#  31]+0.013*[#  34]+0.013*[#  49]+0.013*[#  52]+0.013*[#  67]
          +0.013*[#  70]+0.013*[#  85]+0.013*[#  88]+0.013*[# 103]+0.013*[# 106]
          
    |psi|^2 = 1.000
==== e(  74) =    -4.44878 eV ==== 
     psi = 0.071*[# 117]+0.071*[# 118]+0.071*[# 141]+0.071*[# 142]+0.071*[# 165]
          +0.071*[# 166]+0.034*[# 109]+0.034*[# 110]+0.034*[# 125]+0.034*[# 126]
          +0.034*[# 133]+0.034*[# 134]+0.034*[# 149]+0.034*[# 150]+0.034*[# 157]
          +0.034*[# 158]+0.034*[# 173]+0.034*[# 174]+0.013*[#  13]+0.013*[#  16]
          +0.013*[#  31]+0.013*[#  34]+0.013*[#  49]+0.013*[#  52]+0.013*[#  67]
          +0.013*[#  70]+0.013*[#  85]+0.013*[#  88]+0.013*[# 103]+0.013*[# 106]
          
    |psi|^2 = 1.000
==== e(  75) =    -4.31804 eV ==== 
     psi = 0.109*[# 141]+0.109*[# 142]+0.109*[# 165]+0.109*[# 166]+0.051*[# 125]
          +0.051*[# 126]+0.051*[# 157]+0.051*[# 158]+0.047*[# 133]+0.047*[# 134]
          +0.047*[# 149]+0.047*[# 150]+0.020*[#  13]+0.020*[#  16]+0.020*[# 103]
          +0.020*[# 106]+0.019*[#  49]+0.019*[#  52]+0.019*[#  67]+0.019*[#  70]
          
    |psi|^2 = 1.000
==== e(  76) =    -4.31804 eV ==== 
     psi = 0.109*[# 141]+0.109*[# 142]+0.109*[# 165]+0.109*[# 166]+0.051*[# 125]
          +0.051*[# 126]+0.051*[# 157]+0.051*[# 158]+0.047*[# 133]+0.047*[# 134]
          +0.047*[# 149]+0.047*[# 150]+0.020*[#  13]+0.020*[#  16]+0.020*[# 103]
          +0.020*[# 106]+0.019*[#  49]+0.019*[#  52]+0.019*[#  67]+0.019*[#  70]
          
    |psi|^2 = 1.000
==== e(  77) =    -4.31803 eV ==== 
     psi = 0.146*[# 117]+0.146*[# 118]+0.066*[# 109]+0.066*[# 110]+0.066*[# 173]
          +0.066*[# 174]+0.036*[# 141]+0.036*[# 142]+0.036*[# 165]+0.036*[# 166]
          +0.026*[#  31]+0.026*[#  34]+0.026*[#  85]+0.026*[#  88]+0.019*[# 133]
          +0.019*[# 134]+0.019*[# 149]+0.019*[# 150]+0.014*[# 125]+0.014*[# 126]
          +0.014*[# 157]+0.014*[# 158]+0.007*[#  49]+0.007*[#  52]+0.007*[#  67]
          +0.007*[#  70]+0.006*[#  13]+0.006*[#  16]+0.006*[# 103]+0.006*[# 106]
          
    |psi|^2 = 1.000
==== e(  78) =    -4.31803 eV ==== 
     psi = 0.146*[# 117]+0.146*[# 118]+0.066*[# 109]+0.066*[# 110]+0.066*[# 173]
          +0.066*[# 174]+0.036*[# 141]+0.036*[# 142]+0.036*[# 165]+0.036*[# 166]
          +0.026*[#  31]+0.026*[#  34]+0.026*[#  85]+0.026*[#  88]+0.019*[# 133]
          +0.019*[# 134]+0.019*[# 149]+0.019*[# 150]+0.014*[# 125]+0.014*[# 126]
          +0.014*[# 157]+0.014*[# 158]+0.007*[#  49]+0.007*[#  52]+0.007*[#  67]
          +0.007*[#  70]+0.006*[#  13]+0.006*[#  16]+0.006*[# 103]+0.006*[# 106]
          
    |psi|^2 = 1.000
==== e(  79) =    -2.68678 eV ==== 
     psi = 0.060*[# 133]+0.060*[# 134]+0.060*[# 149]+0.060*[# 150]+0.059*[# 125]
          +0.059*[# 126]+0.059*[# 157]+0.059*[# 158]+0.050*[#  47]+0.050*[#  48]
          +0.050*[#  65]+0.050*[#  66]+0.037*[#  11]+0.037*[#  12]+0.037*[# 101]
          +0.037*[# 102]+0.014*[# 143]+0.014*[# 146]+0.014*[# 167]+0.014*[# 170]
          +0.009*[# 135]+0.009*[# 138]+0.009*[# 151]+0.009*[# 154]+0.007*[#  13]
          +0.007*[#  16]+0.007*[# 103]+0.007*[# 106]+0.005*[#  49]+0.005*[#  52]
          +0.005*[#  67]+0.005*[#  70]+0.004*[# 127]+0.004*[# 130]+0.004*[# 159]
          +0.004*[# 162]+0.003*[# 117]+0.003*[# 118]+0.001*[# 111]+0.001*[# 114]
          +0.001*[# 175]+0.001*[# 178]
    |psi|^2 = 1.000
==== e(  80) =    -2.68678 eV ==== 
     psi = 0.060*[# 133]+0.060*[# 134]+0.060*[# 149]+0.060*[# 150]+0.059*[# 125]
          +0.059*[# 126]+0.059*[# 157]+0.059*[# 158]+0.050*[#  47]+0.050*[#  48]
          +0.050*[#  65]+0.050*[#  66]+0.037*[#  11]+0.037*[#  12]+0.037*[# 101]
          +0.037*[# 102]+0.014*[# 143]+0.014*[# 146]+0.014*[# 167]+0.014*[# 170]
          +0.009*[# 135]+0.009*[# 138]+0.009*[# 151]+0.009*[# 154]+0.007*[#  13]
          +0.007*[#  16]+0.007*[# 103]+0.007*[# 106]+0.005*[#  49]+0.005*[#  52]
          +0.005*[#  67]+0.005*[#  70]+0.004*[# 127]+0.004*[# 130]+0.004*[# 159]
          +0.004*[# 162]+0.003*[# 117]+0.003*[# 118]+0.001*[# 111]+0.001*[# 114]
          +0.001*[# 175]+0.001*[# 178]
    |psi|^2 = 1.000
==== e(  81) =    -2.68677 eV ==== 
     psi = 0.079*[# 109]+0.079*[# 110]+0.079*[# 173]+0.079*[# 174]+0.058*[#  29]
          +0.058*[#  30]+0.058*[#  83]+0.058*[#  84]+0.021*[#  11]+0.021*[#  12]
          +0.021*[# 101]+0.021*[# 102]+0.020*[# 125]+0.020*[# 126]+0.020*[# 157]
          +0.020*[# 158]+0.019*[# 133]+0.019*[# 134]+0.019*[# 149]+0.019*[# 150]
          +0.018*[# 119]+0.018*[# 122]+0.009*[#  47]+0.009*[#  48]+0.009*[#  65]
          +0.009*[#  66]+0.008*[#  31]+0.008*[#  34]+0.008*[#  85]+0.008*[#  88]
          +0.008*[# 111]+0.008*[# 114]+0.008*[# 175]+0.008*[# 178]+0.006*[# 127]
          +0.006*[# 130]+0.006*[# 159]+0.006*[# 162]+0.005*[# 143]+0.005*[# 146]
          +0.005*[# 167]+0.005*[# 170]+0.003*[#  49]+0.003*[#  52]+0.003*[#  67]
          +0.003*[#  70]+0.002*[# 141]+0.002*[# 142]+0.002*[# 165]+0.002*[# 166]
          +0.001*[#  13]+0.001*[#  16]+0.001*[# 103]+0.001*[# 106]
    |psi|^2 = 1.000
==== e(  82) =    -2.68677 eV ==== 
     psi = 0.079*[# 109]+0.079*[# 110]+0.079*[# 173]+0.079*[# 174]+0.058*[#  29]
          +0.058*[#  30]+0.058*[#  83]+0.058*[#  84]+0.021*[#  11]+0.021*[#  12]
          +0.021*[# 101]+0.021*[# 102]+0.020*[# 125]+0.020*[# 126]+0.020*[# 157]
          +0.020*[# 158]+0.019*[# 133]+0.019*[# 134]+0.019*[# 149]+0.019*[# 150]
          +0.018*[# 119]+0.018*[# 122]+0.009*[#  47]+0.009*[#  48]+0.009*[#  65]
          +0.009*[#  66]+0.008*[#  31]+0.008*[#  34]+0.008*[#  85]+0.008*[#  88]
          +0.008*[# 111]+0.008*[# 114]+0.008*[# 175]+0.008*[# 178]+0.006*[# 127]
          +0.006*[# 130]+0.006*[# 159]+0.006*[# 162]+0.005*[# 143]+0.005*[# 146]
          +0.005*[# 167]+0.005*[# 170]+0.003*[#  49]+0.003*[#  52]+0.003*[#  67]
          +0.003*[#  70]+0.002*[# 141]+0.002*[# 142]+0.002*[# 165]+0.002*[# 166]
          +0.001*[#  13]+0.001*[#  16]+0.001*[# 103]+0.001*[# 106]
    |psi|^2 = 1.000
==== e(  83) =    -2.40124 eV ==== 
     psi = 0.045*[# 109]+0.045*[# 110]+0.045*[# 125]+0.045*[# 126]+0.045*[# 133]
          +0.045*[# 134]+0.045*[# 149]+0.045*[# 150]+0.045*[# 157]+0.045*[# 158]
          +0.045*[# 173]+0.045*[# 174]+0.028*[#  11]+0.028*[#  12]+0.028*[#  29]
          +0.028*[#  30]+0.028*[#  47]+0.028*[#  48]+0.028*[#  65]+0.028*[#  66]
          +0.028*[#  83]+0.028*[#  84]+0.028*[# 101]+0.028*[# 102]+0.010*[# 119]
          +0.010*[# 122]+0.010*[# 143]+0.010*[# 146]+0.010*[# 167]+0.010*[# 170]
          +0.005*[#  13]+0.005*[#  16]+0.005*[#  31]+0.005*[#  34]+0.005*[#  49]
          +0.005*[#  52]+0.005*[#  67]+0.005*[#  70]+0.005*[#  85]+0.005*[#  88]
          +0.005*[# 103]+0.005*[# 106]
    |psi|^2 = 1.000
==== e(  84) =    -2.40124 eV ==== 
     psi = 0.045*[# 109]+0.045*[# 110]+0.045*[# 125]+0.045*[# 126]+0.045*[# 133]
          +0.045*[# 134]+0.045*[# 149]+0.045*[# 150]+0.045*[# 157]+0.045*[# 158]
          +0.045*[# 173]+0.045*[# 174]+0.028*[#  11]+0.028*[#  12]+0.028*[#  29]
          +0.028*[#  30]+0.028*[#  47]+0.028*[#  48]+0.028*[#  65]+0.028*[#  66]
          +0.028*[#  83]+0.028*[#  84]+0.028*[# 101]+0.028*[# 102]+0.010*[# 119]
          +0.010*[# 122]+0.010*[# 143]+0.010*[# 146]+0.010*[# 167]+0.010*[# 170]
          +0.005*[#  13]+0.005*[#  16]+0.005*[#  31]+0.005*[#  34]+0.005*[#  49]
          +0.005*[#  52]+0.005*[#  67]+0.005*[#  70]+0.005*[#  85]+0.005*[#  88]
          +0.005*[# 103]+0.005*[# 106]
    |psi|^2 = 1.000
==== e(  85) =    -1.63141 eV ==== 
     psi = 0.044*[# 117]+0.044*[# 118]+0.044*[# 141]+0.044*[# 142]+0.044*[# 165]
          +0.044*[# 166]+0.035*[#  11]+0.035*[#  12]+0.035*[#  29]+0.035*[#  30]
          +0.035*[#  47]+0.035*[#  48]+0.035*[#  65]+0.035*[#  66]+0.035*[#  83]
          +0.035*[#  84]+0.035*[# 101]+0.035*[# 102]+0.020*[# 109]+0.020*[# 110]
          +0.020*[# 125]+0.020*[# 126]+0.020*[# 133]+0.020*[# 134]+0.020*[# 149]
          +0.020*[# 150]+0.020*[# 157]+0.020*[# 158]+0.020*[# 173]+0.020*[# 174]
          +0.007*[# 111]+0.007*[# 114]+0.007*[# 127]+0.007*[# 130]+0.007*[# 135]
          +0.007*[# 138]+0.007*[# 151]+0.007*[# 154]+0.007*[# 159]+0.007*[# 162]
          +0.007*[# 175]+0.007*[# 178]
    |psi|^2 = 1.000
==== e(  86) =    -1.63141 eV ==== 
     psi = 0.044*[# 117]+0.044*[# 118]+0.044*[# 141]+0.044*[# 142]+0.044*[# 165]
          +0.044*[# 166]+0.035*[#  11]+0.035*[#  12]+0.035*[#  29]+0.035*[#  30]
          +0.035*[#  47]+0.035*[#  48]+0.035*[#  65]+0.035*[#  66]+0.035*[#  83]
          +0.035*[#  84]+0.035*[# 101]+0.035*[# 102]+0.020*[# 109]+0.020*[# 110]
          +0.020*[# 125]+0.020*[# 126]+0.020*[# 133]+0.020*[# 134]+0.020*[# 149]
          +0.020*[# 150]+0.020*[# 157]+0.020*[# 158]+0.020*[# 173]+0.020*[# 174]
          +0.007*[# 111]+0.007*[# 114]+0.007*[# 127]+0.007*[# 130]+0.007*[# 135]
          +0.007*[# 138]+0.007*[# 151]+0.007*[# 154]+0.007*[# 159]+0.007*[# 162]
          +0.007*[# 175]+0.007*[# 178]
    |psi|^2 = 1.000
==== e(  87) =    -1.40720 eV ==== 
     psi = 0.058*[#  47]+0.058*[#  48]+0.058*[#  65]+0.058*[#  66]+0.058*[# 141]
          +0.058*[# 142]+0.058*[# 165]+0.058*[# 166]+0.046*[#  11]+0.046*[#  12]
          +0.046*[# 101]+0.046*[# 102]+0.046*[# 133]+0.046*[# 134]+0.046*[# 149]
          +0.046*[# 150]+0.031*[# 125]+0.031*[# 126]+0.031*[# 157]+0.031*[# 158]
          +0.005*[# 127]+0.005*[# 130]+0.005*[# 159]+0.005*[# 162]+0.003*[# 135]
          +0.003*[# 138]+0.003*[# 151]+0.003*[# 154]+0.001*[# 109]+0.001*[# 110]
          +0.001*[# 173]+0.001*[# 174]
    |psi|^2 = 1.000
==== e(  88) =    -1.40720 eV ==== 
     psi = 0.058*[#  47]+0.058*[#  48]+0.058*[#  65]+0.058*[#  66]+0.058*[# 141]
          +0.058*[# 142]+0.058*[# 165]+0.058*[# 166]+0.046*[#  11]+0.046*[#  12]
          +0.046*[# 101]+0.046*[# 102]+0.046*[# 133]+0.046*[# 134]+0.046*[# 149]
          +0.046*[# 150]+0.031*[# 125]+0.031*[# 126]+0.031*[# 157]+0.031*[# 158]
          +0.005*[# 127]+0.005*[# 130]+0.005*[# 159]+0.005*[# 162]+0.003*[# 135]
          +0.003*[# 138]+0.003*[# 151]+0.003*[# 154]+0.001*[# 109]+0.001*[# 110]
          +0.001*[# 173]+0.001*[# 174]
    |psi|^2 = 1.000
==== e(  89) =    -1.40718 eV ==== 
     psi = 0.077*[# 117]+0.077*[# 118]+0.070*[#  29]+0.070*[#  30]+0.070*[#  83]
          +0.070*[#  84]+0.050*[# 109]+0.050*[# 110]+0.050*[# 173]+0.050*[# 174]
          +0.024*[#  11]+0.024*[#  12]+0.024*[# 101]+0.024*[# 102]+0.021*[# 125]
          +0.021*[# 126]+0.021*[# 157]+0.021*[# 158]+0.019*[# 141]+0.019*[# 142]
          +0.019*[# 165]+0.019*[# 166]+0.012*[#  47]+0.012*[#  48]+0.012*[#  65]
          +0.012*[#  66]+0.006*[# 133]+0.006*[# 134]+0.006*[# 149]+0.006*[# 150]
          +0.005*[# 111]+0.005*[# 114]+0.005*[# 175]+0.005*[# 178]+0.002*[# 135]
          +0.002*[# 138]+0.002*[# 151]+0.002*[# 154]
    |psi|^2 = 1.000
==== e(  90) =    -1.40718 eV ==== 
     psi = 0.077*[# 117]+0.077*[# 118]+0.070*[#  29]+0.070*[#  30]+0.070*[#  83]
          +0.070*[#  84]+0.050*[# 109]+0.050*[# 110]+0.050*[# 173]+0.050*[# 174]
          +0.024*[#  11]+0.024*[#  12]+0.024*[# 101]+0.024*[# 102]+0.021*[# 125]
          +0.021*[# 126]+0.021*[# 157]+0.021*[# 158]+0.019*[# 141]+0.019*[# 142]
          +0.019*[# 165]+0.019*[# 166]+0.012*[#  47]+0.012*[#  48]+0.012*[#  65]
          +0.012*[#  66]+0.006*[# 133]+0.006*[# 134]+0.006*[# 149]+0.006*[# 150]
          +0.005*[# 111]+0.005*[# 114]+0.005*[# 175]+0.005*[# 178]+0.002*[# 135]
          +0.002*[# 138]+0.002*[# 151]+0.002*[# 154]
    |psi|^2 = 1.000
==== e(  91) =     4.17702 eV ==== 
     psi = 0.084*[# 135]+0.084*[# 138]+0.084*[# 151]+0.084*[# 154]+0.066*[# 143]
          +0.066*[# 146]+0.066*[# 167]+0.066*[# 170]+0.030*[#  49]+0.030*[#  52]
          +0.030*[#  67]+0.030*[#  70]+0.028*[# 127]+0.028*[# 130]+0.028*[# 159]
          +0.028*[# 162]+0.021*[#  13]+0.021*[#  16]+0.021*[# 103]+0.021*[# 106]
          +0.015*[# 111]+0.015*[# 114]+0.015*[# 175]+0.015*[# 178]+0.002*[#  29]
          +0.002*[#  30]+0.002*[#  83]+0.002*[#  84]+0.001*[# 125]+0.001*[# 126]
          +0.001*[# 157]+0.001*[# 158]
    |psi|^2 = 0.997
==== e(  92) =     4.17702 eV ==== 
     psi = 0.084*[# 135]+0.084*[# 138]+0.084*[# 151]+0.084*[# 154]+0.066*[# 143]
          +0.066*[# 146]+0.066*[# 167]+0.066*[# 170]+0.030*[#  49]+0.030*[#  52]
          +0.030*[#  67]+0.030*[#  70]+0.028*[# 127]+0.028*[# 130]+0.028*[# 159]
          +0.028*[# 162]+0.021*[#  13]+0.021*[#  16]+0.021*[# 103]+0.021*[# 106]
          +0.015*[# 111]+0.015*[# 114]+0.015*[# 175]+0.015*[# 178]+0.002*[#  29]
          +0.002*[#  30]+0.002*[#  83]+0.002*[#  84]+0.001*[# 125]+0.001*[# 126]
          +0.001*[# 157]+0.001*[# 158]
    |psi|^2 = 0.997
==== e(  93) =     4.17702 eV ==== 
     psi = 0.088*[# 119]+0.088*[# 122]+0.070*[# 111]+0.070*[# 114]+0.070*[# 175]
          +0.070*[# 178]+0.057*[# 127]+0.057*[# 130]+0.057*[# 159]+0.057*[# 162]
          +0.034*[#  31]+0.034*[#  34]+0.034*[#  85]+0.034*[#  88]+0.022*[# 143]
          +0.022*[# 146]+0.022*[# 167]+0.022*[# 170]+0.014*[#  13]+0.014*[#  16]
          +0.014*[# 103]+0.014*[# 106]+0.004*[#  49]+0.004*[#  52]+0.004*[#  67]
          +0.004*[#  70]+0.001*[#  47]+0.001*[#  48]+0.001*[#  65]+0.001*[#  66]
          +0.001*[#  11]+0.001*[#  12]+0.001*[# 101]+0.001*[# 102]
    |psi|^2 = 0.997
==== e(  94) =     4.17702 eV ==== 
     psi = 0.088*[# 119]+0.088*[# 122]+0.070*[# 111]+0.070*[# 114]+0.070*[# 175]
          +0.070*[# 178]+0.057*[# 127]+0.057*[# 130]+0.057*[# 159]+0.057*[# 162]
          +0.034*[#  31]+0.034*[#  34]+0.034*[#  85]+0.034*[#  88]+0.022*[# 143]
          +0.022*[# 146]+0.022*[# 167]+0.022*[# 170]+0.014*[#  13]+0.014*[#  16]
          +0.014*[# 103]+0.014*[# 106]+0.004*[#  49]+0.004*[#  52]+0.004*[#  67]
          +0.004*[#  70]+0.001*[#  47]+0.001*[#  48]+0.001*[#  65]+0.001*[#  66]
          +0.001*[#  11]+0.001*[#  12]+0.001*[# 101]+0.001*[# 102]
    |psi|^2 = 0.997
==== e(  95) =     4.56016 eV ==== 
     psi = 0.070*[# 111]+0.070*[# 114]+0.070*[# 127]+0.070*[# 130]+0.070*[# 135]
          +0.070*[# 138]+0.070*[# 151]+0.070*[# 154]+0.070*[# 159]+0.070*[# 162]
          +0.070*[# 175]+0.070*[# 178]+0.007*[#  11]+0.007*[#  12]+0.007*[#  29]
          +0.007*[#  30]+0.007*[#  47]+0.007*[#  48]+0.007*[#  65]+0.007*[#  66]
          +0.007*[#  83]+0.007*[#  84]+0.007*[# 101]+0.007*[# 102]+0.005*[#  13]
          +0.005*[#  16]+0.005*[#  31]+0.005*[#  34]+0.005*[#  49]+0.005*[#  52]
          +0.005*[#  67]+0.005*[#  70]+0.005*[#  85]+0.005*[#  88]+0.005*[# 103]
          +0.005*[# 106]+0.002*[# 117]+0.002*[# 118]+0.002*[# 141]+0.002*[# 142]
          +0.002*[# 165]+0.002*[# 166]
    |psi|^2 = 0.991
==== e(  96) =     4.56016 eV ==== 
     psi = 0.070*[# 111]+0.070*[# 114]+0.070*[# 127]+0.070*[# 130]+0.070*[# 135]
          +0.070*[# 138]+0.070*[# 151]+0.070*[# 154]+0.070*[# 159]+0.070*[# 162]
          +0.070*[# 175]+0.070*[# 178]+0.007*[#  11]+0.007*[#  12]+0.007*[#  29]
          +0.007*[#  30]+0.007*[#  47]+0.007*[#  48]+0.007*[#  65]+0.007*[#  66]
          +0.007*[#  83]+0.007*[#  84]+0.007*[# 101]+0.007*[# 102]+0.005*[#  13]
          +0.005*[#  16]+0.005*[#  31]+0.005*[#  34]+0.005*[#  49]+0.005*[#  52]
          +0.005*[#  67]+0.005*[#  70]+0.005*[#  85]+0.005*[#  88]+0.005*[# 103]
          +0.005*[# 106]+0.002*[# 117]+0.002*[# 118]+0.002*[# 141]+0.002*[# 142]
          +0.002*[# 165]+0.002*[# 166]
    |psi|^2 = 0.991
==== e(  97) =     4.59889 eV ==== 
     psi = 0.091*[# 119]+0.091*[# 122]+0.091*[# 143]+0.091*[# 146]+0.091*[# 167]
          +0.091*[# 170]+0.026*[#  13]+0.026*[#  16]+0.026*[#  31]+0.026*[#  34]
          +0.026*[#  49]+0.026*[#  52]+0.026*[#  67]+0.026*[#  70]+0.026*[#  85]
          +0.026*[#  88]+0.026*[# 103]+0.026*[# 106]+0.005*[#  11]+0.005*[#  12]
          +0.005*[#  29]+0.005*[#  30]+0.005*[#  47]+0.005*[#  48]+0.005*[#  65]
          +0.005*[#  66]+0.005*[#  83]+0.005*[#  84]+0.005*[# 101]+0.005*[# 102]
          +0.004*[# 109]+0.004*[# 110]+0.004*[# 111]+0.004*[# 114]+0.004*[# 125]
          +0.004*[# 126]+0.004*[# 127]+0.004*[# 130]+0.004*[# 133]+0.004*[# 134]
          +0.004*[# 135]+0.004*[# 138]+0.004*[# 149]+0.004*[# 150]+0.004*[# 151]
          +0.004*[# 154]+0.004*[# 157]+0.004*[# 158]+0.004*[# 159]+0.004*[# 162]
          +0.004*[# 173]+0.004*[# 174]+0.004*[# 175]+0.004*[# 178]
    |psi|^2 = 0.996
==== e(  98) =     4.59889 eV ==== 
     psi = 0.091*[# 119]+0.091*[# 122]+0.091*[# 143]+0.091*[# 146]+0.091*[# 167]
          +0.091*[# 170]+0.026*[#  13]+0.026*[#  16]+0.026*[#  31]+0.026*[#  34]
          +0.026*[#  49]+0.026*[#  52]+0.026*[#  67]+0.026*[#  70]+0.026*[#  85]
          +0.026*[#  88]+0.026*[# 103]+0.026*[# 106]+0.005*[#  11]+0.005*[#  12]
          +0.005*[#  29]+0.005*[#  30]+0.005*[#  47]+0.005*[#  48]+0.005*[#  65]
          +0.005*[#  66]+0.005*[#  83]+0.005*[#  84]+0.005*[# 101]+0.005*[# 102]
          +0.004*[# 109]+0.004*[# 110]+0.004*[# 111]+0.004*[# 114]+0.004*[# 125]
          +0.004*[# 126]+0.004*[# 127]+0.004*[# 130]+0.004*[# 133]+0.004*[# 134]
          +0.004*[# 135]+0.004*[# 138]+0.004*[# 149]+0.004*[# 150]+0.004*[# 151]
          +0.004*[# 154]+0.004*[# 157]+0.004*[# 158]+0.004*[# 159]+0.004*[# 162]
          +0.004*[# 173]+0.004*[# 174]+0.004*[# 175]+0.004*[# 178]
    |psi|^2 = 0.996
==== e(  99) =     4.91948 eV ==== 
     psi = 0.034*[# 144]+0.034*[# 145]+0.034*[# 147]+0.034*[# 148]+0.034*[# 168]
          +0.034*[# 169]+0.034*[# 171]+0.034*[# 172]+0.026*[# 136]+0.026*[# 137]
          +0.026*[# 139]+0.026*[# 140]+0.026*[# 152]+0.026*[# 153]+0.026*[# 155]
          +0.026*[# 156]+0.025*[#  50]+0.025*[#  51]+0.025*[#  53]+0.025*[#  54]
          +0.025*[#  68]+0.025*[#  69]+0.025*[#  71]+0.025*[#  72]+0.021*[#  14]
          +0.021*[#  15]+0.021*[#  17]+0.021*[#  18]+0.021*[# 104]+0.021*[# 105]
          +0.021*[# 107]+0.021*[# 108]+0.018*[# 128]+0.018*[# 129]+0.018*[# 131]
          +0.018*[# 132]+0.018*[# 160]+0.018*[# 161]+0.018*[# 163]+0.018*[# 164]
          
    |psi|^2 = 0.995
==== e( 100) =     4.91948 eV ==== 
     psi = 0.034*[# 144]+0.034*[# 145]+0.034*[# 147]+0.034*[# 148]+0.034*[# 168]
          +0.034*[# 169]+0.034*[# 171]+0.034*[# 172]+0.026*[# 136]+0.026*[# 137]
          +0.026*[# 139]+0.026*[# 140]+0.026*[# 152]+0.026*[# 153]+0.026*[# 155]
          +0.026*[# 156]+0.025*[#  50]+0.025*[#  51]+0.025*[#  53]+0.025*[#  54]
          +0.025*[#  68]+0.025*[#  69]+0.025*[#  71]+0.025*[#  72]+0.021*[#  14]
          +0.021*[#  15]+0.021*[#  17]+0.021*[#  18]+0.021*[# 104]+0.021*[# 105]
          +0.021*[# 107]+0.021*[# 108]+0.018*[# 128]+0.018*[# 129]+0.018*[# 131]
          +0.018*[# 132]+0.018*[# 160]+0.018*[# 161]+0.018*[# 163]+0.018*[# 164]
          
    |psi|^2 = 0.995
==== e( 101) =     4.91948 eV ==== 
     psi = 0.034*[# 144]+0.034*[# 145]+0.034*[# 147]+0.034*[# 148]+0.034*[# 168]
          +0.034*[# 169]+0.034*[# 171]+0.034*[# 172]+0.026*[# 136]+0.026*[# 137]
          +0.026*[# 139]+0.026*[# 140]+0.026*[# 152]+0.026*[# 153]+0.026*[# 155]
          +0.026*[# 156]+0.025*[#  50]+0.025*[#  51]+0.025*[#  53]+0.025*[#  54]
          +0.025*[#  68]+0.025*[#  69]+0.025*[#  71]+0.025*[#  72]+0.021*[#  14]
          +0.021*[#  15]+0.021*[#  17]+0.021*[#  18]+0.021*[# 104]+0.021*[# 105]
          +0.021*[# 107]+0.021*[# 108]+0.018*[# 128]+0.018*[# 129]+0.018*[# 131]
          +0.018*[# 132]+0.018*[# 160]+0.018*[# 161]+0.018*[# 163]+0.018*[# 164]
          
    |psi|^2 = 0.995
==== e( 102) =     4.91948 eV ==== 
     psi = 0.034*[# 144]+0.034*[# 145]+0.034*[# 147]+0.034*[# 148]+0.034*[# 168]
          +0.034*[# 169]+0.034*[# 171]+0.034*[# 172]+0.026*[# 136]+0.026*[# 137]
          +0.026*[# 139]+0.026*[# 140]+0.026*[# 152]+0.026*[# 153]+0.026*[# 155]
          +0.026*[# 156]+0.025*[#  50]+0.025*[#  51]+0.025*[#  53]+0.025*[#  54]
          +0.025*[#  68]+0.025*[#  69]+0.025*[#  71]+0.025*[#  72]+0.021*[#  14]
          +0.021*[#  15]+0.021*[#  17]+0.021*[#  18]+0.021*[# 104]+0.021*[# 105]
          +0.021*[# 107]+0.021*[# 108]+0.018*[# 128]+0.018*[# 129]+0.018*[# 131]
          +0.018*[# 132]+0.018*[# 160]+0.018*[# 161]+0.018*[# 163]+0.018*[# 164]
          
    |psi|^2 = 0.995
==== e( 103) =     4.91949 eV ==== 
     psi = 0.045*[# 120]+0.045*[# 121]+0.045*[# 123]+0.045*[# 124]+0.031*[#  32]
          +0.031*[#  33]+0.031*[#  35]+0.031*[#  36]+0.031*[#  86]+0.031*[#  87]
          +0.031*[#  89]+0.031*[#  90]+0.029*[# 112]+0.029*[# 113]+0.029*[# 115]
          +0.029*[# 116]+0.029*[# 176]+0.029*[# 177]+0.029*[# 179]+0.029*[# 180]
          +0.012*[# 128]+0.012*[# 129]+0.012*[# 131]+0.012*[# 132]+0.012*[# 160]
          +0.012*[# 161]+0.012*[# 163]+0.012*[# 164]+0.011*[# 144]+0.011*[# 145]
          +0.011*[# 147]+0.011*[# 148]+0.011*[# 168]+0.011*[# 169]+0.011*[# 171]
          +0.011*[# 172]+0.010*[#  14]+0.010*[#  15]+0.010*[#  17]+0.010*[#  18]
          +0.010*[# 104]+0.010*[# 105]+0.010*[# 107]+0.010*[# 108]+0.006*[#  50]
          +0.006*[#  51]+0.006*[#  53]+0.006*[#  54]+0.006*[#  68]+0.006*[#  69]
          +0.006*[#  71]+0.006*[#  72]+0.004*[# 136]+0.004*[# 137]+0.004*[# 139]
          +0.004*[# 140]+0.004*[# 152]+0.004*[# 153]+0.004*[# 155]+0.004*[# 156]
          
    |psi|^2 = 0.995
==== e( 104) =     4.91949 eV ==== 
     psi = 0.045*[# 120]+0.045*[# 121]+0.045*[# 123]+0.045*[# 124]+0.031*[#  32]
          +0.031*[#  33]+0.031*[#  35]+0.031*[#  36]+0.031*[#  86]+0.031*[#  87]
          +0.031*[#  89]+0.031*[#  90]+0.029*[# 112]+0.029*[# 113]+0.029*[# 115]
          +0.029*[# 116]+0.029*[# 176]+0.029*[# 177]+0.029*[# 179]+0.029*[# 180]
          +0.012*[# 128]+0.012*[# 129]+0.012*[# 131]+0.012*[# 132]+0.012*[# 160]
          +0.012*[# 161]+0.012*[# 163]+0.012*[# 164]+0.011*[# 144]+0.011*[# 145]
          +0.011*[# 147]+0.011*[# 148]+0.011*[# 168]+0.011*[# 169]+0.011*[# 171]
          +0.011*[# 172]+0.010*[#  14]+0.010*[#  15]+0.010*[#  17]+0.010*[#  18]
          +0.010*[# 104]+0.010*[# 105]+0.010*[# 107]+0.010*[# 108]+0.006*[#  50]
          +0.006*[#  51]+0.006*[#  53]+0.006*[#  54]+0.006*[#  68]+0.006*[#  69]
          +0.006*[#  71]+0.006*[#  72]+0.004*[# 136]+0.004*[# 137]+0.004*[# 139]
          +0.004*[# 140]+0.004*[# 152]+0.004*[# 153]+0.004*[# 155]+0.004*[# 156]
          
    |psi|^2 = 0.995
==== e( 105) =     4.91949 eV ==== 
     psi = 0.045*[# 120]+0.045*[# 121]+0.045*[# 123]+0.045*[# 124]+0.031*[#  32]
          +0.031*[#  33]+0.031*[#  35]+0.031*[#  36]+0.031*[#  86]+0.031*[#  87]
          +0.031*[#  89]+0.031*[#  90]+0.029*[# 112]+0.029*[# 113]+0.029*[# 115]
          +0.029*[# 116]+0.029*[# 176]+0.029*[# 177]+0.029*[# 179]+0.029*[# 180]
          +0.012*[# 128]+0.012*[# 129]+0.012*[# 131]+0.012*[# 132]+0.012*[# 160]
          +0.012*[# 161]+0.012*[# 163]+0.012*[# 164]+0.011*[# 144]+0.011*[# 145]
          +0.011*[# 147]+0.011*[# 148]+0.011*[# 168]+0.011*[# 169]+0.011*[# 171]
          +0.011*[# 172]+0.010*[#  14]+0.010*[#  15]+0.010*[#  17]+0.010*[#  18]
          +0.010*[# 104]+0.010*[# 105]+0.010*[# 107]+0.010*[# 108]+0.006*[#  50]
          +0.006*[#  51]+0.006*[#  53]+0.006*[#  54]+0.006*[#  68]+0.006*[#  69]
          +0.006*[#  71]+0.006*[#  72]+0.004*[# 136]+0.004*[# 137]+0.004*[# 139]
          +0.004*[# 140]+0.004*[# 152]+0.004*[# 153]+0.004*[# 155]+0.004*[# 156]
          
    |psi|^2 = 0.995
==== e( 106) =     4.91949 eV ==== 
     psi = 0.045*[# 120]+0.045*[# 121]+0.045*[# 123]+0.045*[# 124]+0.031*[#  32]
          +0.031*[#  33]+0.031*[#  35]+0.031*[#  36]+0.031*[#  86]+0.031*[#  87]
          +0.031*[#  89]+0.031*[#  90]+0.029*[# 112]+0.029*[# 113]+0.029*[# 115]
          +0.029*[# 116]+0.029*[# 176]+0.029*[# 177]+0.029*[# 179]+0.029*[# 180]
          +0.012*[# 128]+0.012*[# 129]+0.012*[# 131]+0.012*[# 132]+0.012*[# 160]
          +0.012*[# 161]+0.012*[# 163]+0.012*[# 164]+0.011*[# 144]+0.011*[# 145]
          +0.011*[# 147]+0.011*[# 148]+0.011*[# 168]+0.011*[# 169]+0.011*[# 171]
          +0.011*[# 172]+0.010*[#  14]+0.010*[#  15]+0.010*[#  17]+0.010*[#  18]
          +0.010*[# 104]+0.010*[# 105]+0.010*[# 107]+0.010*[# 108]+0.006*[#  50]
          +0.006*[#  51]+0.006*[#  53]+0.006*[#  54]+0.006*[#  68]+0.006*[#  69]
          +0.006*[#  71]+0.006*[#  72]+0.004*[# 136]+0.004*[# 137]+0.004*[# 139]
          +0.004*[# 140]+0.004*[# 152]+0.004*[# 153]+0.004*[# 155]+0.004*[# 156]
          
    |psi|^2 = 0.995
==== e( 107) =     4.94963 eV ==== 
     psi = 0.026*[# 120]+0.026*[# 121]+0.026*[# 123]+0.026*[# 124]+0.026*[# 144]
          +0.026*[# 145]+0.026*[# 147]+0.026*[# 148]+0.026*[# 168]+0.026*[# 169]
          +0.026*[# 171]+0.026*[# 172]+0.016*[#  14]+0.016*[#  15]+0.016*[#  17]
          +0.016*[#  18]+0.016*[#  32]+0.016*[#  33]+0.016*[#  35]+0.016*[#  36]
          +0.016*[#  50]+0.016*[#  51]+0.016*[#  53]+0.016*[#  54]+0.016*[#  68]
[...]
          +0.003*[# 107]+0.003*[# 108]+0.001*[#  49]+0.001*[#  52]+0.001*[#  67]
          +0.001*[#  70]+0.001*[# 125]+0.001*[# 126]+0.001*[# 157]+0.001*[# 158]
          
    |psi|^2 = 0.990
==== e( 132) =     4.92109 eV ==== 
     psi = 0.174*[# 119]+0.174*[# 122]+0.053*[# 112]+0.053*[# 113]+0.053*[# 115]
          +0.053*[# 116]+0.053*[# 176]+0.053*[# 177]+0.053*[# 179]+0.053*[# 180]
          +0.009*[# 136]+0.009*[# 137]+0.009*[# 139]+0.009*[# 140]+0.009*[# 152]
          +0.009*[# 153]+0.009*[# 155]+0.009*[# 156]+0.009*[# 144]+0.009*[# 145]
          +0.009*[# 147]+0.009*[# 148]+0.009*[# 168]+0.009*[# 169]+0.009*[# 171]
          +0.009*[# 172]+0.005*[# 127]+0.005*[# 130]+0.005*[# 159]+0.005*[# 162]
          +0.004*[#  47]+0.004*[#  48]+0.004*[#  65]+0.004*[#  66]+0.003*[#  14]
          +0.003*[#  15]+0.003*[#  17]+0.003*[#  18]+0.003*[# 104]+0.003*[# 105]
          +0.003*[# 107]+0.003*[# 108]+0.001*[#  49]+0.001*[#  52]+0.001*[#  67]
          +0.001*[#  70]+0.001*[# 125]+0.001*[# 126]+0.001*[# 157]+0.001*[# 158]
          
    |psi|^2 = 0.990
==== e( 133) =     5.58705 eV ==== 
     psi = 0.062*[# 127]+0.062*[# 130]+0.062*[# 159]+0.062*[# 162]+0.040*[# 119]
          +0.040*[# 122]+0.036*[# 144]+0.036*[# 145]+0.036*[# 147]+0.036*[# 148]
          +0.036*[# 168]+0.036*[# 169]+0.036*[# 171]+0.036*[# 172]+0.027*[# 136]
          +0.027*[# 137]+0.027*[# 139]+0.027*[# 140]+0.027*[# 152]+0.027*[# 153]
          +0.027*[# 155]+0.027*[# 156]+0.015*[#  47]+0.015*[#  48]+0.015*[#  65]
          +0.015*[#  66]+0.011*[# 112]+0.011*[# 113]+0.011*[# 115]+0.011*[# 116]
          +0.011*[# 176]+0.011*[# 177]+0.011*[# 179]+0.011*[# 180]
    |psi|^2 = 0.989
==== e( 134) =     5.58705 eV ==== 
     psi = 0.062*[# 127]+0.062*[# 130]+0.062*[# 159]+0.062*[# 162]+0.040*[# 119]
          +0.040*[# 122]+0.036*[# 144]+0.036*[# 145]+0.036*[# 147]+0.036*[# 148]
          +0.036*[# 168]+0.036*[# 169]+0.036*[# 171]+0.036*[# 172]+0.027*[# 136]
          +0.027*[# 137]+0.027*[# 139]+0.027*[# 140]+0.027*[# 152]+0.027*[# 153]
          +0.027*[# 155]+0.027*[# 156]+0.015*[#  47]+0.015*[#  48]+0.015*[#  65]
          +0.015*[#  66]+0.011*[# 112]+0.011*[# 113]+0.011*[# 115]+0.011*[# 116]
          +0.011*[# 176]+0.011*[# 177]+0.011*[# 179]+0.011*[# 180]
    |psi|^2 = 0.989
==== e( 135) =     5.58705 eV ==== 
     psi = 0.036*[# 120]+0.036*[# 121]+0.036*[# 123]+0.036*[# 124]+0.031*[# 111]
          +0.031*[# 114]+0.031*[# 135]+0.031*[# 138]+0.031*[# 151]+0.031*[# 154]
          +0.031*[# 175]+0.031*[# 178]+0.020*[# 143]+0.020*[# 146]+0.020*[# 167]
          +0.020*[# 170]+0.019*[# 128]+0.019*[# 129]+0.019*[# 131]+0.019*[# 132]
          +0.019*[# 160]+0.019*[# 161]+0.019*[# 163]+0.019*[# 164]+0.018*[# 144]
          +0.018*[# 145]+0.018*[# 147]+0.018*[# 148]+0.018*[# 168]+0.018*[# 169]
          +0.018*[# 171]+0.018*[# 172]+0.013*[# 112]+0.013*[# 113]+0.013*[# 115]
          +0.013*[# 116]+0.013*[# 176]+0.013*[# 177]+0.013*[# 179]+0.013*[# 180]
          +0.007*[#  11]+0.007*[#  12]+0.007*[#  29]+0.007*[#  30]+0.007*[#  83]
          +0.007*[#  84]+0.007*[# 101]+0.007*[# 102]+0.005*[# 136]+0.005*[# 137]
          +0.005*[# 139]+0.005*[# 140]+0.005*[# 152]+0.005*[# 153]+0.005*[# 155]
          +0.005*[# 156]
    |psi|^2 = 0.989
==== e( 136) =     5.58705 eV ==== 
     psi = 0.036*[# 120]+0.036*[# 121]+0.036*[# 123]+0.036*[# 124]+0.031*[# 111]
          +0.031*[# 114]+0.031*[# 135]+0.031*[# 138]+0.031*[# 151]+0.031*[# 154]
          +0.031*[# 175]+0.031*[# 178]+0.020*[# 143]+0.020*[# 146]+0.020*[# 167]
          +0.020*[# 170]+0.019*[# 128]+0.019*[# 129]+0.019*[# 131]+0.019*[# 132]
          +0.019*[# 160]+0.019*[# 161]+0.019*[# 163]+0.019*[# 164]+0.018*[# 144]
          +0.018*[# 145]+0.018*[# 147]+0.018*[# 148]+0.018*[# 168]+0.018*[# 169]
          +0.018*[# 171]+0.018*[# 172]+0.013*[# 112]+0.013*[# 113]+0.013*[# 115]
          +0.013*[# 116]+0.013*[# 176]+0.013*[# 177]+0.013*[# 179]+0.013*[# 180]
          +0.007*[#  11]+0.007*[#  12]+0.007*[#  29]+0.007*[#  30]+0.007*[#  83]
          +0.007*[#  84]+0.007*[# 101]+0.007*[# 102]+0.005*[# 136]+0.005*[# 137]
          +0.005*[# 139]+0.005*[# 140]+0.005*[# 152]+0.005*[# 153]+0.005*[# 155]
          +0.005*[# 156]
    |psi|^2 = 0.989
==== e( 137) =     5.58705 eV ==== 
     psi = 0.036*[# 120]+0.036*[# 121]+0.036*[# 123]+0.036*[# 124]+0.031*[# 111]
          +0.031*[# 114]+0.031*[# 135]+0.031*[# 138]+0.031*[# 151]+0.031*[# 154]
          +0.031*[# 175]+0.031*[# 178]+0.020*[# 143]+0.020*[# 146]+0.020*[# 167]
          +0.020*[# 170]+0.019*[# 128]+0.019*[# 129]+0.019*[# 131]+0.019*[# 132]
          +0.019*[# 160]+0.019*[# 161]+0.019*[# 163]+0.019*[# 164]+0.018*[# 144]
          +0.018*[# 145]+0.018*[# 147]+0.018*[# 148]+0.018*[# 168]+0.018*[# 169]
          +0.018*[# 171]+0.018*[# 172]+0.013*[# 112]+0.013*[# 113]+0.013*[# 115]
          +0.013*[# 116]+0.013*[# 176]+0.013*[# 177]+0.013*[# 179]+0.013*[# 180]
          +0.007*[#  11]+0.007*[#  12]+0.007*[#  29]+0.007*[#  30]+0.007*[#  83]
          +0.007*[#  84]+0.007*[# 101]+0.007*[# 102]+0.005*[# 136]+0.005*[# 137]
          +0.005*[# 139]+0.005*[# 140]+0.005*[# 152]+0.005*[# 153]+0.005*[# 155]
          +0.005*[# 156]
    |psi|^2 = 0.989
==== e( 138) =     5.58705 eV ==== 
     psi = 0.036*[# 120]+0.036*[# 121]+0.036*[# 123]+0.036*[# 124]+0.031*[# 111]
          +0.031*[# 114]+0.031*[# 135]+0.031*[# 138]+0.031*[# 151]+0.031*[# 154]
          +0.031*[# 175]+0.031*[# 178]+0.020*[# 143]+0.020*[# 146]+0.020*[# 167]
          +0.020*[# 170]+0.019*[# 128]+0.019*[# 129]+0.019*[# 131]+0.019*[# 132]
          +0.019*[# 160]+0.019*[# 161]+0.019*[# 163]+0.019*[# 164]+0.018*[# 144]
          +0.018*[# 145]+0.018*[# 147]+0.018*[# 148]+0.018*[# 168]+0.018*[# 169]
          +0.018*[# 171]+0.018*[# 172]+0.013*[# 112]+0.013*[# 113]+0.013*[# 115]
          +0.013*[# 116]+0.013*[# 176]+0.013*[# 177]+0.013*[# 179]+0.013*[# 180]
          +0.007*[#  11]+0.007*[#  12]+0.007*[#  29]+0.007*[#  30]+0.007*[#  83]
          +0.007*[#  84]+0.007*[# 101]+0.007*[# 102]+0.005*[# 136]+0.005*[# 137]
          +0.005*[# 139]+0.005*[# 140]+0.005*[# 152]+0.005*[# 153]+0.005*[# 155]
          +0.005*[# 156]
    |psi|^2 = 0.989
==== e( 139) =     5.75534 eV ==== 
     psi = 0.063*[# 127]+0.063*[# 130]+0.063*[# 159]+0.063*[# 162]+0.043*[# 144]
          +0.043*[# 145]+0.043*[# 147]+0.043*[# 148]+0.043*[# 168]+0.043*[# 169]
          +0.043*[# 171]+0.043*[# 172]+0.034*[# 136]+0.034*[# 137]+0.034*[# 139]
          +0.034*[# 140]+0.034*[# 152]+0.034*[# 153]+0.034*[# 155]+0.034*[# 156]
          +0.019*[#  47]+0.019*[#  48]+0.019*[#  65]+0.019*[#  66]+0.006*[#  49]
          +0.006*[#  52]+0.006*[#  67]+0.006*[#  70]+0.002*[#  32]+0.002*[#  33]
          +0.002*[#  35]+0.002*[#  36]+0.002*[#  86]+0.002*[#  87]+0.002*[#  89]
          +0.002*[#  90]
    |psi|^2 = 0.989
==== e( 140) =     5.75534 eV ==== 
     psi = 0.063*[# 127]+0.063*[# 130]+0.063*[# 159]+0.063*[# 162]+0.043*[# 144]
          +0.043*[# 145]+0.043*[# 147]+0.043*[# 148]+0.043*[# 168]+0.043*[# 169]
          +0.043*[# 171]+0.043*[# 172]+0.034*[# 136]+0.034*[# 137]+0.034*[# 139]
          +0.034*[# 140]+0.034*[# 152]+0.034*[# 153]+0.034*[# 155]+0.034*[# 156]
          +0.019*[#  47]+0.019*[#  48]+0.019*[#  65]+0.019*[#  66]+0.006*[#  49]
          +0.006*[#  52]+0.006*[#  67]+0.006*[#  70]+0.002*[#  32]+0.002*[#  33]
          +0.002*[#  35]+0.002*[#  36]+0.002*[#  86]+0.002*[#  87]+0.002*[#  89]
          +0.002*[#  90]
    |psi|^2 = 0.989
==== e( 141) =     5.75535 eV ==== 
     psi = 0.043*[# 120]+0.043*[# 121]+0.043*[# 123]+0.043*[# 124]+0.031*[# 111]
          +0.031*[# 114]+0.031*[# 135]+0.031*[# 138]+0.031*[# 151]+0.031*[# 154]
          +0.031*[# 175]+0.031*[# 178]+0.021*[# 144]+0.021*[# 145]+0.021*[# 147]
          +0.021*[# 148]+0.021*[# 168]+0.021*[# 169]+0.021*[# 171]+0.021*[# 172]
          +0.017*[# 112]+0.017*[# 113]+0.017*[# 115]+0.017*[# 116]+0.017*[# 128]
          +0.017*[# 129]+0.017*[# 131]+0.017*[# 132]+0.017*[# 160]+0.017*[# 161]
          +0.017*[# 163]+0.017*[# 164]+0.017*[# 176]+0.017*[# 177]+0.017*[# 179]
          +0.017*[# 180]+0.009*[#  11]+0.009*[#  12]+0.009*[#  29]+0.009*[#  30]
          +0.009*[#  83]+0.009*[#  84]+0.009*[# 101]+0.009*[# 102]+0.003*[#  13]
          +0.003*[#  16]+0.003*[#  31]+0.003*[#  34]+0.003*[#  85]+0.003*[#  88]
          +0.003*[# 103]+0.003*[# 106]+0.001*[#  50]+0.001*[#  51]+0.001*[#  53]
          +0.001*[#  54]+0.001*[#  68]+0.001*[#  69]+0.001*[#  71]+0.001*[#  72]
          +0.001*[#  14]+0.001*[#  15]+0.001*[#  17]+0.001*[#  18]+0.001*[# 104]
          +0.001*[# 105]+0.001*[# 107]+0.001*[# 108]
    |psi|^2 = 0.989
==== e( 142) =     5.75535 eV ==== 
     psi = 0.043*[# 120]+0.043*[# 121]+0.043*[# 123]+0.043*[# 124]+0.031*[# 111]
          +0.031*[# 114]+0.031*[# 135]+0.031*[# 138]+0.031*[# 151]+0.031*[# 154]
          +0.031*[# 175]+0.031*[# 178]+0.021*[# 144]+0.021*[# 145]+0.021*[# 147]
          +0.021*[# 148]+0.021*[# 168]+0.021*[# 169]+0.021*[# 171]+0.021*[# 172]
          +0.017*[# 112]+0.017*[# 113]+0.017*[# 115]+0.017*[# 116]+0.017*[# 128]
          +0.017*[# 129]+0.017*[# 131]+0.017*[# 132]+0.017*[# 160]+0.017*[# 161]
          +0.017*[# 163]+0.017*[# 164]+0.017*[# 176]+0.017*[# 177]+0.017*[# 179]
          +0.017*[# 180]+0.009*[#  11]+0.009*[#  12]+0.009*[#  29]+0.009*[#  30]
          +0.009*[#  83]+0.009*[#  84]+0.009*[# 101]+0.009*[# 102]+0.003*[#  13]
          +0.003*[#  16]+0.003*[#  31]+0.003*[#  34]+0.003*[#  85]+0.003*[#  88]
          +0.003*[# 103]+0.003*[# 106]+0.001*[#  50]+0.001*[#  51]+0.001*[#  53]
          +0.001*[#  54]+0.001*[#  68]+0.001*[#  69]+0.001*[#  71]+0.001*[#  72]
          +0.001*[#  14]+0.001*[#  15]+0.001*[#  17]+0.001*[#  18]+0.001*[# 104]
          +0.001*[# 105]+0.001*[# 107]+0.001*[# 108]
    |psi|^2 = 0.989
==== e( 143) =     5.75535 eV ==== 
     psi = 0.043*[# 120]+0.043*[# 121]+0.043*[# 123]+0.043*[# 124]+0.031*[# 111]
          +0.031*[# 114]+0.031*[# 135]+0.031*[# 138]+0.031*[# 151]+0.031*[# 154]
          +0.031*[# 175]+0.031*[# 178]+0.021*[# 144]+0.021*[# 145]+0.021*[# 147]
          +0.021*[# 148]+0.021*[# 168]+0.021*[# 169]+0.021*[# 171]+0.021*[# 172]
          +0.017*[# 112]+0.017*[# 113]+0.017*[# 115]+0.017*[# 116]+0.017*[# 128]
          +0.017*[# 129]+0.017*[# 131]+0.017*[# 132]+0.017*[# 160]+0.017*[# 161]
          +0.017*[# 163]+0.017*[# 164]+0.017*[# 176]+0.017*[# 177]+0.017*[# 179]
          +0.017*[# 180]+0.009*[#  11]+0.009*[#  12]+0.009*[#  29]+0.009*[#  30]
          +0.009*[#  83]+0.009*[#  84]+0.009*[# 101]+0.009*[# 102]+0.003*[#  13]
          +0.003*[#  16]+0.003*[#  31]+0.003*[#  34]+0.003*[#  85]+0.003*[#  88]
          +0.003*[# 103]+0.003*[# 106]+0.001*[#  50]+0.001*[#  51]+0.001*[#  53]
          +0.001*[#  54]+0.001*[#  68]+0.001*[#  69]+0.001*[#  71]+0.001*[#  72]
          +0.001*[#  14]+0.001*[#  15]+0.001*[#  17]+0.001*[#  18]+0.001*[# 104]
          +0.001*[# 105]+0.001*[# 107]+0.001*[# 108]
    |psi|^2 = 0.989
==== e( 144) =     5.75535 eV ==== 
     psi = 0.043*[# 120]+0.043*[# 121]+0.043*[# 123]+0.043*[# 124]+0.031*[# 111]
          +0.031*[# 114]+0.031*[# 135]+0.031*[# 138]+0.031*[# 151]+0.031*[# 154]
          +0.031*[# 175]+0.031*[# 178]+0.021*[# 144]+0.021*[# 145]+0.021*[# 147]
          +0.021*[# 148]+0.021*[# 168]+0.021*[# 169]+0.021*[# 171]+0.021*[# 172]
          +0.017*[# 112]+0.017*[# 113]+0.017*[# 115]+0.017*[# 116]+0.017*[# 128]
          +0.017*[# 129]+0.017*[# 131]+0.017*[# 132]+0.017*[# 160]+0.017*[# 161]
          +0.017*[# 163]+0.017*[# 164]+0.017*[# 176]+0.017*[# 177]+0.017*[# 179]
          +0.017*[# 180]+0.009*[#  11]+0.009*[#  12]+0.009*[#  29]+0.009*[#  30]
          +0.009*[#  83]+0.009*[#  84]+0.009*[# 101]+0.009*[# 102]+0.003*[#  13]
          +0.003*[#  16]+0.003*[#  31]+0.003*[#  34]+0.003*[#  85]+0.003*[#  88]
          +0.003*[# 103]+0.003*[# 106]+0.001*[#  50]+0.001*[#  51]+0.001*[#  53]
          +0.001*[#  54]+0.001*[#  68]+0.001*[#  69]+0.001*[#  71]+0.001*[#  72]
          +0.001*[#  14]+0.001*[#  15]+0.001*[#  17]+0.001*[#  18]+0.001*[# 104]
          +0.001*[# 105]+0.001*[# 107]+0.001*[# 108]
    |psi|^2 = 0.989

Lowdin Charges: 

     Atom #   1: total charge =  14.5054, s =  1.9607, p =  2.5463, d =  9.9984, 
                 spin up      =   7.2527, s =  0.9803, 
                 spin up      =   7.2527, p =  1.2732, 
                 spin up      =   7.2527, d =  4.9992, 
                 spin down    =   7.2527, s =  0.9803, 
                 spin down    =   7.2527, p =  1.2732, 
                 spin down    =   7.2527, d =  4.9992, 
                 polarization =  -0.0000, s =  0.0000, p = -0.0000, d = -0.0000, 
     Atom #   2: total charge =  14.5054, s =  1.9607, p =  2.5463, d =  9.9984, 
                 spin up      =   7.2527, s =  0.9803, 
                 spin up      =   7.2527, p =  1.2732, 
                 spin up      =   7.2527, d =  4.9992, 
                 spin down    =   7.2527, s =  0.9803, 
                 spin down    =   7.2527, p =  1.2732, 
                 spin down    =   7.2527, d =  4.9992, 
                 polarization =  -0.0000, s = -0.0000, p = -0.0000, d = -0.0000, 
     Atom #   3: total charge =  14.5054, s =  1.9607, p =  2.5463, d =  9.9984, 
                 spin up      =   7.2527, s =  0.9803, 
                 spin up      =   7.2527, p =  1.2732, 
                 spin up      =   7.2527, d =  4.9992, 
                 spin down    =   7.2527, s =  0.9803, 
                 spin down    =   7.2527, p =  1.2732, 
                 spin down    =   7.2527, d =  4.9992, 
                 polarization =  -0.0000, s = -0.0000, p = -0.0000, d = -0.0000, 
     Atom #   4: total charge =  14.5054, s =  1.9607, p =  2.5463, d =  9.9984, 
                 spin up      =   7.2527, s =  0.9803, 
                 spin up      =   7.2527, p =  1.2732, 
                 spin up      =   7.2527, d =  4.9992, 
                 spin down    =   7.2527, s =  0.9803, 
                 spin down    =   7.2527, p =  1.2732, 
                 spin down    =   7.2527, d =  4.9992, 
                 polarization =  -0.0000, s = -0.0000, p = -0.0000, d = -0.0000, 
     Atom #   5: total charge =  14.5054, s =  1.9607, p =  2.5463, d =  9.9984, 
                 spin up      =   7.2527, s =  0.9803, 
                 spin up      =   7.2527, p =  1.2732, 
                 spin up      =   7.2527, d =  4.9992, 
                 spin down    =   7.2527, s =  0.9803, 
                 spin down    =   7.2527, p =  1.2732, 
                 spin down    =   7.2527, d =  4.9992, 
                 polarization =  -0.0000, s = -0.0000, p = -0.0000, d = -0.0000, 
     Atom #   6: total charge =  14.5054, s =  1.9607, p =  2.5463, d =  9.9984, 
                 spin up      =   7.2527, s =  0.9803, 
                 spin up      =   7.2527, p =  1.2732, 
                 spin up      =   7.2527, d =  4.9992, 
                 spin down    =   7.2527, s =  0.9803, 
                 spin down    =   7.2527, p =  1.2732, 
                 spin down    =   7.2527, d =  4.9992, 
                 polarization =  -0.0000, s =  0.0000, p = -0.0000, d = -0.0000, 
     Atom #   7: total charge =   6.2105, s =  1.9237, p =  4.2868, d =  0.0000, 
                 spin up      =   3.1053, s =  0.9618, 
                 spin up      =   3.1053, p =  2.1434, 
                 spin up      =   3.1053, d =  0.0000, 
                 spin down    =   3.1053, s =  0.9618, 
                 spin down    =   3.1053, p =  2.1434, 
                 spin down    =   3.1053, d =  0.0000, 
                 polarization =  -0.0000, s = -0.0000, p = -0.0000, d =  0.0000, 
     Atom #   8: total charge =   6.4087, s =  1.9042, p =  4.5045, d =  0.0000, 
                 spin up      =   3.2043, s =  0.9521, 
                 spin up      =   3.2043, p =  2.2523, 
                 spin up      =   3.2043, d =  0.0000, 
                 spin down    =   3.2043, s =  0.9521, 
                 spin down    =   3.2043, p =  2.2523, 
                 spin down    =   3.2043, d =  0.0000, 
                 polarization =  -0.0000, s = -0.0000, p = -0.0000, d =  0.0000, 
     Atom #   9: total charge =   6.2105, s =  1.9237, p =  4.2868, d =  0.0000, 
                 spin up      =   3.1053, s =  0.9618, 
                 spin up      =   3.1053, p =  2.1434, 
                 spin up      =   3.1053, d =  0.0000, 
                 spin down    =   3.1053, s =  0.9618, 
                 spin down    =   3.1053, p =  2.1434, 
                 spin down    =   3.1053, d =  0.0000, 
                 polarization =   0.0000, s = -0.0000, p =  0.0000, d =  0.0000, 
     Atom #  10: total charge =   6.2105, s =  1.9237, p =  4.2868, d =  0.0000, 
                 spin up      =   3.1052, s =  0.9618, 
                 spin up      =   3.1052, p =  2.1434, 
                 spin up      =   3.1052, d =  0.0000, 
                 spin down    =   3.1052, s =  0.9618, 
                 spin down    =   3.1052, p =  2.1434, 
                 spin down    =   3.1052, d =  0.0000, 
                 polarization =   0.0000, s = -0.0000, p =  0.0000, d =  0.0000, 
     Atom #  11: total charge =   6.4087, s =  1.9042, p =  4.5045, d =  0.0000, 
                 spin up      =   3.2044, s =  0.9521, 
                 spin up      =   3.2044, p =  2.2523, 
                 spin up      =   3.2044, d =  0.0000, 
                 spin down    =   3.2044, s =  0.9521, 
                 spin down    =   3.2044, p =  2.2523, 
                 spin down    =   3.2044, d =  0.0000, 
                 polarization =   0.0000, s = -0.0000, p =  0.0000, d =  0.0000, 
     Atom #  12: total charge =   6.2105, s =  1.9237, p =  4.2868, d =  0.0000, 
                 spin up      =   3.1052, s =  0.9618, 
                 spin up      =   3.1052, p =  2.1434, 
                 spin up      =   3.1052, d =  0.0000, 
                 spin down    =   3.1052, s =  0.9618, 
                 spin down    =   3.1052, p =  2.1434, 
                 spin down    =   3.1052, d =  0.0000, 
                 polarization =   0.0000, s = -0.0000, p =  0.0000, d =  0.0000, 
     Atom #  13: total charge =   6.2105, s =  1.9237, p =  4.2868, d =  0.0000, 
                 spin up      =   3.1053, s =  0.9618, 
                 spin up      =   3.1053, p =  2.1434, 
                 spin up      =   3.1053, d =  0.0000, 
                 spin down    =   3.1053, s =  0.9618, 
                 spin down    =   3.1053, p =  2.1434, 
                 spin down    =   3.1053, d =  0.0000, 
                 polarization =   0.0000, s = -0.0000, p =  0.0000, d =  0.0000, 
     Atom #  14: total charge =   6.4087, s =  1.9042, p =  4.5045, d =  0.0000, 
                 spin up      =   3.2044, s =  0.9521, 
                 spin up      =   3.2044, p =  2.2523, 
                 spin up      =   3.2044, d =  0.0000, 
                 spin down    =   3.2044, s =  0.9521, 
                 spin down    =   3.2044, p =  2.2523, 
                 spin down    =   3.2044, d =  0.0000, 
                 polarization =   0.0000, s = -0.0000, p =  0.0000, d =  0.0000, 
     Atom #  15: total charge =   6.2105, s =  1.9237, p =  4.2868, d =  0.0000, 
                 spin up      =   3.1053, s =  0.9618, 
                 spin up      =   3.1053, p =  2.1434, 
                 spin up      =   3.1053, d =  0.0000, 
                 spin down    =   3.1053, s =  0.9618, 
                 spin down    =   3.1053, p =  2.1434, 
                 spin down    =   3.1053, d =  0.0000, 
                 polarization =  -0.0000, s = -0.0000, p = -0.0000, d =  0.0000, 
     Spilling Parameter:   0.0033
 
     PROJWFC      :      6.44s CPU     11.09s WALL

 
   This run was terminated on:  17:50: 8  29May2023            

=------------------------------------------------------------------------------=
   JOB DONE.
=------------------------------------------------------------------------------=
