
     Program PROJWFC v.7.0 starts on 31May2023 at  1:44:25 

     This program is part of the open-source Quantum ESPRESSO suite
     for quantum simulation of materials; please cite
         "P. Giannozzi et al., J. Phys.:Condens. Matter 21 395502 (2009);
         "P. Giannozzi et al., J. Phys.:Condens. Matter 29 465901 (2017);
         "P. Giannozzi et al., J. Chem. Phys. 152 154105 (2020);
          URL http://www.quantum-espresso.org", 
     in publications or presentations arising from this work. More details at
     http://www.quantum-espresso.org/quote

     Parallel version (MPI & OpenMP), running on      10 processor cores
     Number of MPI processes:                10
     Threads/MPI process:                     1

     MPI processes distributed on     1 nodes
     R & G space division:  proc/nbgrp/npool/nimage =      10
     124830 MiB available memory on the printing compute node when the environment starts
 

     Reading xml data from directory:

     out/ni.save/

     IMPORTANT: XC functional enforced from input :
     Exchange-correlation= PBE
                           (   1   4   3   4   0   0   0)
     Any further DFT definition will be discarded
     Please, verify this is what you really want

 
     Parallelization info
     --------------------
     sticks:   dense  smooth     PW     G-vecs:    dense   smooth      PW
     Min          55      26      9                  844      297      55
     Max          57      28     10                  845      298      57
     Sum         559     271     91                 8441     2975     561
 
     Using Slab Decomposition
 

     Check: negative core charge=   -0.000008

     Gaussian broadening (read from file): ngauss,degauss=  -1    0.010000


     Calling projwave .... 

     Subspace diagonalization in iterative solution of the eigenvalue problem:
     one sub-group per band group will be used
     scalapack distributed-memory algorithm (size of sub-group:  3*  3 procs)

     linear algebra parallelized on   9 procs
     Warning: lwrite_ovp not implemented, ignored
 
  Problem Sizes 
  natomwfc =           13
  nx       =            5
  nbnd     =           10
  nkstot   =          142
  npwx     =           42
  nkb      =           18
 

     Atomic states used for projection
     (read from pseudopotential files):

     state #   1: atom   1 (Ni ), wfc  1 (l=0 m= 1)
     state #   2: atom   1 (Ni ), wfc  2 (l=1 m= 1)
     state #   3: atom   1 (Ni ), wfc  2 (l=1 m= 2)
     state #   4: atom   1 (Ni ), wfc  2 (l=1 m= 3)
     state #   5: atom   1 (Ni ), wfc  3 (l=2 m= 1)
     state #   6: atom   1 (Ni ), wfc  3 (l=2 m= 2)
     state #   7: atom   1 (Ni ), wfc  3 (l=2 m= 3)
     state #   8: atom   1 (Ni ), wfc  3 (l=2 m= 4)
     state #   9: atom   1 (Ni ), wfc  3 (l=2 m= 5)
     state #  10: atom   1 (Ni ), wfc  4 (l=0 m= 1)
     state #  11: atom   1 (Ni ), wfc  5 (l=1 m= 1)
     state #  12: atom   1 (Ni ), wfc  5 (l=1 m= 2)
     state #  13: atom   1 (Ni ), wfc  5 (l=1 m= 3)

 k =   0.0000000000  0.0000000000  0.0000000000
==== e(   1) =   -85.89983 eV ==== 
     psi = 0.976*[#   1]+0.024*[#  10]
    |psi|^2 = 1.000
==== e(   2) =   -46.15628 eV ==== 
     psi = 0.330*[#   2]+0.330*[#   3]+0.330*[#   4]+0.004*[#  11]+0.004*[#  12]
          +0.004*[#  13]
    |psi|^2 = 1.000
==== e(   3) =   -46.15628 eV ==== 
     psi = 0.330*[#   2]+0.330*[#   3]+0.330*[#   4]+0.004*[#  11]+0.004*[#  12]
          +0.004*[#  13]
    |psi|^2 = 1.000
==== e(   4) =   -46.15628 eV ==== 
     psi = 0.330*[#   2]+0.330*[#   3]+0.330*[#   4]+0.004*[#  11]+0.004*[#  12]
          +0.004*[#  13]
    |psi|^2 = 1.000
==== e(   5) =     8.73837 eV ==== 
     psi = 0.976*[#  10]+0.024*[#   1]
    |psi|^2 = 1.000
==== e(   6) =    15.39035 eV ==== 
     psi = 0.332*[#   6]+0.332*[#   7]+0.332*[#   9]
    |psi|^2 = 0.997
==== e(   7) =    15.39035 eV ==== 
     psi = 0.332*[#   6]+0.332*[#   7]+0.332*[#   9]
    |psi|^2 = 0.997
==== e(   8) =    15.39035 eV ==== 
     psi = 0.332*[#   6]+0.332*[#   7]+0.332*[#   9]
    |psi|^2 = 0.997
==== e(   9) =    16.53515 eV ==== 
     psi = 0.500*[#   5]+0.500*[#   8]
    |psi|^2 = 1.000
==== e(  10) =    16.53515 eV ==== 
     psi = 0.500*[#   5]+0.500*[#   8]
    |psi|^2 = 1.000

 k =  -0.0250000000  0.0250000000  0.0250000000
==== e(   1) =   -85.89963 eV ==== 
     psi = 0.975*[#   1]+0.022*[#  10]+0.001*[#  11]+0.001*[#  12]+0.001*[#  13]
          
    |psi|^2 = 1.000
==== e(   2) =   -46.15762 eV ==== 
     psi = 0.330*[#   2]+0.330*[#   3]+0.330*[#   4]+0.004*[#  11]+0.004*[#  12]
          +0.004*[#  13]
    |psi|^2 = 1.000
==== e(   3) =   -46.15648 eV ==== 
     psi = 0.330*[#   2]+0.330*[#   3]+0.330*[#   4]+0.004*[#  11]+0.004*[#  12]
          +0.004*[#  13]
    |psi|^2 = 1.000
==== e(   4) =   -46.15648 eV ==== 
     psi = 0.330*[#   2]+0.330*[#   3]+0.330*[#   4]+0.004*[#  11]+0.004*[#  12]
          +0.004*[#  13]
    |psi|^2 = 1.000
==== e(   5) =     8.76304 eV ==== 
     psi = 0.964*[#  10]+0.024*[#   1]+0.004*[#  11]+0.004*[#  12]+0.004*[#  13]
          
    |psi|^2 = 1.000
==== e(   6) =    15.38383 eV ==== 
     psi = 0.332*[#   6]+0.332*[#   7]+0.332*[#   9]
    |psi|^2 = 0.997
==== e(   7) =    15.39600 eV ==== 
     psi = 0.332*[#   6]+0.332*[#   7]+0.332*[#   9]
    |psi|^2 = 0.997
==== e(   8) =    15.39600 eV ==== 
     psi = 0.332*[#   6]+0.332*[#   7]+0.332*[#   9]
    |psi|^2 = 0.997
==== e(   9) =    16.53267 eV ==== 
     psi = 0.500*[#   5]+0.500*[#   8]
    |psi|^2 = 1.000
==== e(  10) =    16.53267 eV ==== 
     psi = 0.500*[#   5]+0.500*[#   8]
    |psi|^2 = 1.000

 k =  -0.0500000000  0.0500000000  0.0500000000
==== e(   1) =   -85.89902 eV ==== 
     psi = 0.970*[#   1]+0.019*[#  10]+0.004*[#  11]+0.004*[#  12]+0.004*[#  13]
          
    |psi|^2 = 1.000
==== e(   2) =   -46.16163 eV ==== 
     psi = 0.330*[#   2]+0.330*[#   3]+0.330*[#   4]+0.003*[#  11]+0.003*[#  12]
          +0.003*[#  13]
    |psi|^2 = 1.000
==== e(   3) =   -46.15706 eV ==== 
     psi = 0.330*[#   2]+0.330*[#   3]+0.330*[#   4]+0.004*[#  11]+0.004*[#  12]
          +0.004*[#  13]
    |psi|^2 = 1.000
==== e(   4) =   -46.15706 eV ==== 
     psi = 0.330*[#   2]+0.330*[#   3]+0.330*[#   4]+0.004*[#  11]+0.004*[#  12]
          +0.004*[#  13]
    |psi|^2 = 1.000
==== e(   5) =     8.83684 eV ==== 
     psi = 0.930*[#  10]+0.025*[#   1]+0.015*[#  11]+0.015*[#  12]+0.015*[#  13]
          
    |psi|^2 = 1.000
==== e(   6) =    15.36458 eV ==== 
     psi = 0.332*[#   6]+0.332*[#   7]+0.332*[#   9]
    |psi|^2 = 0.997
==== e(   7) =    15.41248 eV ==== 
     psi = 0.332*[#   6]+0.332*[#   7]+0.332*[#   9]
    |psi|^2 = 0.997
==== e(   8) =    15.41248 eV ==== 
     psi = 0.332*[#   6]+0.332*[#   7]+0.332*[#   9]
    |psi|^2 = 0.997
==== e(   9) =    16.52546 eV ==== 
     psi = 0.500*[#   5]+0.500*[#   8]
    |psi|^2 = 1.000
==== e(  10) =    16.52546 eV ==== 
     psi = 0.500*[#   5]+0.500*[#   8]
    |psi|^2 = 1.000

 k =  -0.0750000000  0.0750000000  0.0750000000
==== e(   1) =   -85.89802 eV ==== 
     psi = 0.963*[#   1]+0.014*[#  10]+0.007*[#  11]+0.007*[#  12]+0.007*[#  13]
          
    |psi|^2 = 1.000
==== e(   2) =   -46.16818 eV ==== 
     psi = 0.330*[#   2]+0.330*[#   3]+0.330*[#   4]+0.002*[#  11]+0.002*[#  12]
          +0.002*[#  13]+0.002*[#  10]
    |psi|^2 = 1.000
==== e(   3) =   -46.15800 eV ==== 
     psi = 0.330*[#   2]+0.330*[#   3]+0.330*[#   4]+0.004*[#  11]+0.004*[#  12]
          +0.004*[#  13]
    |psi|^2 = 1.000
==== e(   4) =   -46.15800 eV ==== 
     psi = 0.330*[#   2]+0.330*[#   3]+0.330*[#   4]+0.004*[#  11]+0.004*[#  12]
          +0.004*[#  13]
    |psi|^2 = 1.000
==== e(   5) =     8.95912 eV ==== 
     psi = 0.881*[#  10]+0.031*[#  11]+0.031*[#  12]+0.031*[#  13]+0.026*[#   1]
          
    |psi|^2 = 1.000
==== e(   6) =    15.33386 eV ==== 
     psi = 0.331*[#   6]+0.331*[#   7]+0.331*[#   9]
    |psi|^2 = 0.997
==== e(   7) =    15.43866 eV ==== 
     psi = 0.332*[#   6]+0.332*[#   7]+0.332*[#   9]
    |psi|^2 = 0.998
==== e(   8) =    15.43866 eV ==== 
     psi = 0.332*[#   6]+0.332*[#   7]+0.332*[#   9]
    |psi|^2 = 0.998
==== e(   9) =    16.51495 eV ==== 
     psi = 0.499*[#   5]+0.499*[#   8]
    |psi|^2 = 0.999
==== e(  10) =    16.51495 eV ==== 
     psi = 0.499*[#   5]+0.499*[#   8]
    |psi|^2 = 0.999

 k =  -0.1000000000  0.1000000000  0.1000000000
==== e(   1) =   -85.89666 eV ==== 
     psi = 0.956*[#   1]+0.011*[#  11]+0.011*[#  12]+0.011*[#  13]+0.010*[#  10]
          
    |psi|^2 = 1.000
==== e(   2) =   -46.17712 eV ==== 
     psi = 0.331*[#   2]+0.331*[#   3]+0.331*[#   4]+0.003*[#  10]+0.002*[#  11]
          +0.002*[#  12]+0.002*[#  13]
    |psi|^2 = 1.000
==== e(   3) =   -46.15929 eV ==== 
     psi = 0.330*[#   2]+0.330*[#   3]+0.330*[#   4]+0.004*[#  11]+0.004*[#  12]
          +0.004*[#  13]
    |psi|^2 = 1.000
==== e(   4) =   -46.15929 eV ==== 
     psi = 0.330*[#   2]+0.330*[#   3]+0.330*[#   4]+0.004*[#  11]+0.004*[#  12]
          +0.004*[#  13]
    |psi|^2 = 1.000
==== e(   5) =     9.12878 eV ==== 
     psi = 0.821*[#  10]+0.050*[#  11]+0.050*[#  12]+0.050*[#  13]+0.027*[#   1]
          
    |psi|^2 = 1.000
==== e(   6) =    15.29349 eV ==== 
     psi = 0.330*[#   6]+0.330*[#   7]+0.330*[#   9]+0.002*[#  11]+0.002*[#  12]
          +0.002*[#  13]
    |psi|^2 = 0.997
==== e(   7) =    15.47229 eV ==== 
     psi = 0.330*[#   6]+0.330*[#   7]+0.330*[#   9]+0.003*[#   5]+0.003*[#   8]
          
    |psi|^2 = 0.998
==== e(   8) =    15.47229 eV ==== 
     psi = 0.330*[#   6]+0.330*[#   7]+0.330*[#   9]+0.003*[#   5]+0.003*[#   8]
          
    |psi|^2 = 0.998
==== e(   9) =    16.50313 eV ==== 
     psi = 0.496*[#   5]+0.496*[#   8]+0.002*[#   6]+0.002*[#   7]+0.002*[#   9]
          
    |psi|^2 = 0.999
==== e(  10) =    16.50313 eV ==== 
     psi = 0.496*[#   5]+0.496*[#   8]+0.002*[#   6]+0.002*[#   7]+0.002*[#   9]
          
    |psi|^2 = 0.999

 k =  -0.1250000000  0.1250000000  0.1250000000
==== e(   1) =   -85.89497 eV ==== 
     psi = 0.950*[#   1]+0.015*[#  11]+0.015*[#  12]+0.015*[#  13]+0.006*[#  10]
          
    |psi|^2 = 1.000
==== e(   2) =   -46.18822 eV ==== 
     psi = 0.331*[#   2]+0.331*[#   3]+0.331*[#   4]+0.003*[#  10]
    |psi|^2 = 1.000
==== e(   3) =   -46.16089 eV ==== 
     psi = 0.330*[#   2]+0.330*[#   3]+0.330*[#   4]+0.004*[#  11]+0.004*[#  12]
          +0.004*[#  13]
    |psi|^2 = 1.000
==== e(   4) =   -46.16089 eV ==== 
     psi = 0.330*[#   2]+0.330*[#   3]+0.330*[#   4]+0.004*[#  11]+0.004*[#  12]
          +0.004*[#  13]
    |psi|^2 = 1.000
==== e(   5) =     9.34413 eV ==== 
     psi = 0.759*[#  10]+0.070*[#  11]+0.070*[#  12]+0.070*[#  13]+0.028*[#   1]
          
    |psi|^2 = 1.000
==== e(   6) =    15.24612 eV ==== 
     psi = 0.329*[#   6]+0.329*[#   7]+0.329*[#   9]+0.003*[#  11]+0.003*[#  12]
          +0.003*[#  13]
    |psi|^2 = 0.997
==== e(   7) =    15.51026 eV ==== 
     psi = 0.326*[#   6]+0.326*[#   7]+0.326*[#   9]+0.009*[#   5]+0.009*[#   8]
          
    |psi|^2 = 0.998
==== e(   8) =    15.51026 eV ==== 
     psi = 0.326*[#   6]+0.326*[#   7]+0.326*[#   9]+0.009*[#   5]+0.009*[#   8]
          
    |psi|^2 = 0.998
==== e(   9) =    16.49311 eV ==== 
     psi = 0.491*[#   5]+0.491*[#   8]+0.006*[#   6]+0.006*[#   7]+0.006*[#   9]
          
    |psi|^2 = 0.999
==== e(  10) =    16.49311 eV ==== 
     psi = 0.491*[#   5]+0.491*[#   8]+0.006*[#   6]+0.006*[#   7]+0.006*[#   9]
          
    |psi|^2 = 0.999

 k =  -0.1500000000  0.1500000000  0.1500000000
==== e(   1) =   -85.89298 eV ==== 
     psi = 0.945*[#   1]+0.017*[#  11]+0.017*[#  12]+0.017*[#  13]+0.003*[#  10]
          
    |psi|^2 = 1.000
==== e(   2) =   -46.20121 eV ==== 
     psi = 0.332*[#   2]+0.332*[#   3]+0.332*[#   4]+0.004*[#  10]
    |psi|^2 = 1.000
==== e(   3) =   -46.16276 eV ==== 
     psi = 0.330*[#   2]+0.330*[#   3]+0.330*[#   4]+0.004*[#  11]+0.004*[#  12]
          +0.004*[#  13]
    |psi|^2 = 1.000
==== e(   4) =   -46.16276 eV ==== 
     psi = 0.330*[#   2]+0.330*[#   3]+0.330*[#   4]+0.004*[#  11]+0.004*[#  12]
          +0.004*[#  13]
    |psi|^2 = 1.000
==== e(   5) =     9.60279 eV ==== 
     psi = 0.699*[#  10]+0.089*[#  11]+0.089*[#  12]+0.089*[#  13]+0.029*[#   1]
          +0.002*[#   6]+0.002*[#   7]+0.002*[#   9]
    |psi|^2 = 1.000
==== e(   6) =    15.19525 eV ==== 
     psi = 0.327*[#   6]+0.327*[#   7]+0.327*[#   9]+0.005*[#  11]+0.005*[#  12]
          +0.005*[#  13]
    |psi|^2 = 0.997
==== e(   7) =    15.54826 eV ==== 
     psi = 0.319*[#   6]+0.319*[#   7]+0.319*[#   9]+0.019*[#   5]+0.019*[#   8]
          
    |psi|^2 = 0.998
==== e(   8) =    15.54826 eV ==== 
     psi = 0.319*[#   6]+0.319*[#   7]+0.319*[#   9]+0.019*[#   5]+0.019*[#   8]
          
    |psi|^2 = 0.998
==== e(   9) =    16.48888 eV ==== 
     psi = 0.480*[#   5]+0.480*[#   8]+0.013*[#   6]+0.013*[#   7]+0.013*[#   9]
          
    |psi|^2 = 0.999
==== e(  10) =    16.48888 eV ==== 
     psi = 0.480*[#   5]+0.480*[#   8]+0.013*[#   6]+0.013*[#   7]+0.013*[#   9]
          
    |psi|^2 = 0.999

 k =  -0.1750000000  0.1750000000  0.1750000000
==== e(   1) =   -85.89076 eV ==== 
     psi = 0.943*[#   1]+0.019*[#  11]+0.019*[#  12]+0.019*[#  13]+0.001*[#  10]
          
    |psi|^2 = 1.000
==== e(   2) =   -46.21574 eV ==== 
     psi = 0.332*[#   2]+0.332*[#   3]+0.332*[#   4]+0.004*[#  10]
    |psi|^2 = 1.000
==== e(   3) =   -46.16486 eV ==== 
     psi = 0.330*[#   2]+0.330*[#   3]+0.330*[#   4]+0.003*[#  11]+0.003*[#  12]
          +0.003*[#  13]
    |psi|^2 = 1.000
==== e(   4) =   -46.16486 eV ==== 
     psi = 0.330*[#   2]+0.330*[#   3]+0.330*[#   4]+0.003*[#  11]+0.003*[#  12]
          +0.003*[#  13]
    |psi|^2 = 1.000
==== e(   5) =     9.90140 eV ==== 
     psi = 0.643*[#  10]+0.105*[#  11]+0.105*[#  12]+0.105*[#  13]+0.029*[#   1]
          +0.003*[#   6]+0.003*[#   7]+0.003*[#   9]
    |psi|^2 = 1.000
==== e(   6) =    15.14527 eV ==== 
     psi = 0.323*[#   6]+0.323*[#   7]+0.323*[#   9]+0.009*[#  11]+0.009*[#  12]
          +0.009*[#  13]
    |psi|^2 = 0.997
==== e(   7) =    15.58128 eV ==== 
     psi = 0.307*[#   6]+0.307*[#   7]+0.307*[#   9]+0.038*[#   5]+0.038*[#   8]
          
    |psi|^2 = 0.998
==== e(   8) =    15.58128 eV ==== 
     psi = 0.307*[#   6]+0.307*[#   7]+0.307*[#   9]+0.038*[#   5]+0.038*[#   8]
          
    |psi|^2 = 0.998
==== e(   9) =    16.49511 eV ==== 
     psi = 0.462*[#   5]+0.462*[#   8]+0.025*[#   6]+0.025*[#   7]+0.025*[#   9]
          
    |psi|^2 = 0.999
==== e(  10) =    16.49511 eV ==== 
     psi = 0.462*[#   5]+0.462*[#   8]+0.025*[#   6]+0.025*[#   7]+0.025*[#   9]
          
    |psi|^2 = 0.999

 k =  -0.2000000000  0.2000000000  0.2000000000
==== e(   1) =   -85.88834 eV ==== 
     psi = 0.942*[#   1]+0.019*[#  11]+0.019*[#  12]+0.019*[#  13]
    |psi|^2 = 1.000
==== e(   2) =   -46.23147 eV ==== 
     psi = 0.332*[#   2]+0.332*[#   3]+0.332*[#   4]+0.004*[#  10]
    |psi|^2 = 1.000
==== e(   3) =   -46.16713 eV ==== 
     psi = 0.330*[#   2]+0.330*[#   3]+0.330*[#   4]+0.003*[#  11]+0.003*[#  12]
          +0.003*[#  13]
    |psi|^2 = 1.000
==== e(   4) =   -46.16713 eV ==== 
     psi = 0.330*[#   2]+0.330*[#   3]+0.330*[#   4]+0.003*[#  11]+0.003*[#  12]
          +0.003*[#  13]
    |psi|^2 = 1.000
==== e(   5) =    10.23528 eV ==== 
     psi = 0.593*[#  10]+0.119*[#  11]+0.119*[#  12]+0.119*[#  13]+0.028*[#   1]
          +0.006*[#   6]+0.006*[#   7]+0.006*[#   9]
    |psi|^2 = 1.000
==== e(   6) =    15.10173 eV ==== 
     psi = 0.318*[#   6]+0.318*[#   7]+0.318*[#   9]+0.013*[#  11]+0.013*[#  12]
          +0.013*[#  13]+0.001*[#   1]
    |psi|^2 = 0.996
==== e(   7) =    15.60437 eV ==== 
     psi = 0.289*[#   6]+0.289*[#   7]+0.289*[#   9]+0.064*[#   5]+0.064*[#   8]
          
    |psi|^2 = 0.998
==== e(   8) =    15.60437 eV ==== 
     psi = 0.289*[#   6]+0.289*[#   7]+0.289*[#   9]+0.064*[#   5]+0.064*[#   8]
          
    |psi|^2 = 0.998
==== e(   9) =    16.51622 eV ==== 
     psi = 0.435*[#   5]+0.435*[#   8]+0.043*[#   6]+0.043*[#   7]+0.043*[#   9]
          
    |psi|^2 = 0.999
==== e(  10) =    16.51622 eV ==== 
     psi = 0.435*[#   5]+0.435*[#   8]+0.043*[#   6]+0.043*[#   7]+0.043*[#   9]
          
    |psi|^2 = 0.999

 k =  -0.2250000000  0.2250000000  0.2250000000
==== e(   1) =   -85.88580 eV ==== 
     psi = 0.944*[#   1]+0.019*[#  11]+0.019*[#  12]+0.019*[#  13]
    |psi|^2 = 1.000
==== e(   2) =   -46.24801 eV ==== 
     psi = 0.332*[#   2]+0.332*[#   3]+0.332*[#   4]+0.003*[#  10]
    |psi|^2 = 1.000
==== e(   3) =   -46.16952 eV ==== 
     psi = 0.330*[#   2]+0.330*[#   3]+0.330*[#   4]+0.003*[#  11]+0.003*[#  12]
          +0.003*[#  13]
    |psi|^2 = 1.000
==== e(   4) =   -46.16952 eV ==== 
     psi = 0.330*[#   2]+0.330*[#   3]+0.330*[#   4]+0.003*[#  11]+0.003*[#  12]
          +0.003*[#  13]
    |psi|^2 = 1.000
==== e(   5) =    10.59786 eV ==== 
     psi = 0.548*[#  10]+0.129*[#  11]+0.129*[#  12]+0.129*[#  13]+0.026*[#   1]
          +0.012*[#   6]+0.012*[#   7]+0.012*[#   9]
    |psi|^2 = 1.000
==== e(   6) =    15.07179 eV ==== 
     psi = 0.311*[#   6]+0.311*[#   7]+0.311*[#   9]+0.020*[#  11]+0.020*[#  12]
          +0.020*[#  13]+0.002*[#   1]
    |psi|^2 = 0.996
==== e(   7) =    15.61413 eV ==== 
     psi = 0.266*[#   6]+0.266*[#   7]+0.266*[#   9]+0.098*[#   5]+0.098*[#   8]
          
    |psi|^2 = 0.998
==== e(   8) =    15.61413 eV ==== 
     psi = 0.266*[#   6]+0.266*[#   7]+0.266*[#   9]+0.098*[#   5]+0.098*[#   8]
          
    |psi|^2 = 0.998
==== e(   9) =    16.55489 eV ==== 
     psi = 0.401*[#   5]+0.401*[#   8]+0.065*[#   6]+0.065*[#   7]+0.065*[#   9]
          
    |psi|^2 = 0.999
==== e(  10) =    16.55489 eV ==== 
     psi = 0.401*[#   5]+0.401*[#   8]+0.065*[#   6]+0.065*[#   7]+0.065*[#   9]
          
    |psi|^2 = 0.999

 k =  -0.2500000000  0.2500000000  0.2500000000
==== e(   1) =   -85.88320 eV ==== 
     psi = 0.947*[#   1]+0.018*[#  11]+0.018*[#  12]+0.018*[#  13]
    |psi|^2 = 1.000
==== e(   2) =   -46.26494 eV ==== 
     psi = 0.332*[#   2]+0.332*[#   3]+0.332*[#   4]+0.003*[#  10]
    |psi|^2 = 1.000
==== e(   3) =   -46.17198 eV ==== 
     psi = 0.330*[#   2]+0.330*[#   3]+0.330*[#   4]+0.003*[#  11]+0.003*[#  12]
          +0.003*[#  13]
    |psi|^2 = 1.000
==== e(   4) =   -46.17198 eV ==== 
     psi = 0.330*[#   2]+0.330*[#   3]+0.330*[#   4]+0.003*[#  11]+0.003*[#  12]
          +0.003*[#  13]
    |psi|^2 = 1.000
==== e(   5) =    10.97979 eV ==== 
     psi = 0.509*[#  10]+0.135*[#  11]+0.135*[#  12]+0.135*[#  13]+0.024*[#   1]
          +0.020*[#   6]+0.020*[#   7]+0.020*[#   9]+0.001*[#   2]+0.001*[#   3]
          +0.001*[#   4]
    |psi|^2 = 0.999
==== e(   6) =    15.06463 eV ==== 
     psi = 0.300*[#   6]+0.300*[#   7]+0.300*[#   9]+0.031*[#  11]+0.031*[#  12]
          +0.031*[#  13]+0.003*[#   1]+0.002*[#  10]
    |psi|^2 = 0.997
==== e(   7) =    15.60983 eV ==== 
     psi = 0.242*[#   6]+0.242*[#   7]+0.242*[#   9]+0.135*[#   5]+0.135*[#   8]
          
    |psi|^2 = 0.998
==== e(   8) =    15.60983 eV ==== 
     psi = 0.242*[#   6]+0.242*[#   7]+0.242*[#   9]+0.135*[#   5]+0.135*[#   8]
          
    |psi|^2 = 0.998
==== e(   9) =    16.61091 eV ==== 
     psi = 0.364*[#   5]+0.364*[#   8]+0.090*[#   6]+0.090*[#   7]+0.090*[#   9]
          
    |psi|^2 = 0.999
==== e(  10) =    16.61091 eV ==== 
     psi = 0.364*[#   5]+0.364*[#   8]+0.090*[#   6]+0.090*[#   7]+0.090*[#   9]
          
    |psi|^2 = 0.999

 k =  -0.2750000000  0.2750000000  0.2750000000
==== e(   1) =   -85.88059 eV ==== 
     psi = 0.952*[#   1]+0.016*[#  11]+0.016*[#  12]+0.016*[#  13]
    |psi|^2 = 1.000
==== e(   2) =   -46.28184 eV ==== 
     psi = 0.332*[#   2]+0.332*[#   3]+0.332*[#   4]+0.003*[#  10]
    |psi|^2 = 1.000
==== e(   3) =   -46.17442 eV ==== 
     psi = 0.330*[#   2]+0.330*[#   3]+0.330*[#   4]+0.003*[#  11]+0.003*[#  12]
          +0.003*[#  13]
    |psi|^2 = 1.000
==== e(   4) =   -46.17442 eV ==== 
     psi = 0.330*[#   2]+0.330*[#   3]+0.330*[#   4]+0.003*[#  11]+0.003*[#  12]
          +0.003*[#  13]
    |psi|^2 = 1.000
==== e(   5) =    11.36790 eV ==== 
     psi = 0.473*[#  10]+0.134*[#  11]+0.134*[#  12]+0.134*[#  13]+0.033*[#   6]
          +0.033*[#   7]+0.033*[#   9]+0.020*[#   1]+0.001*[#   2]+0.001*[#   3]
          +0.001*[#   4]
    |psi|^2 = 0.999
==== e(   6) =    15.09304 eV ==== 
     psi = 0.283*[#   6]+0.283*[#   7]+0.283*[#   9]+0.046*[#  11]+0.046*[#  12]
          +0.046*[#  13]+0.004*[#   1]+0.004*[#  10]
    |psi|^2 = 0.997
==== e(   7) =    15.59335 eV ==== 
     psi = 0.219*[#   6]+0.219*[#   7]+0.219*[#   9]+0.169*[#   5]+0.169*[#   8]
          
    |psi|^2 = 0.998
==== e(   8) =    15.59335 eV ==== 
     psi = 0.219*[#   6]+0.219*[#   7]+0.219*[#   9]+0.169*[#   5]+0.169*[#   8]
          
    |psi|^2 = 0.998
==== e(   9) =    16.68133 eV ==== 
     psi = 0.330*[#   5]+0.330*[#   8]+0.113*[#   6]+0.113*[#   7]+0.113*[#   9]
          
    |psi|^2 = 0.999
==== e(  10) =    16.68133 eV ==== 
     psi = 0.330*[#   5]+0.330*[#   8]+0.113*[#   6]+0.113*[#   7]+0.113*[#   9]
          
    |psi|^2 = 0.999

 k =  -0.3000000000  0.3000000000  0.3000000000
==== e(   1) =   -85.87805 eV ==== 
     psi = 0.958*[#   1]+0.014*[#  11]+0.014*[#  12]+0.014*[#  13]
    |psi|^2 = 1.000
==== e(   2) =   -46.29830 eV ==== 
     psi = 0.332*[#   2]+0.332*[#   3]+0.332*[#   4]+0.002*[#  10]+0.001*[#  11]
          +0.001*[#  12]+0.001*[#  13]
    |psi|^2 = 1.000
==== e(   3) =   -46.17681 eV ==== 
     psi = 0.330*[#   2]+0.330*[#   3]+0.330*[#   4]+0.003*[#  11]+0.003*[#  12]
          +0.003*[#  13]
    |psi|^2 = 1.000
==== e(   4) =   -46.17681 eV ==== 
     psi = 0.330*[#   2]+0.330*[#   3]+0.330*[#   4]+0.003*[#  11]+0.003*[#  12]
          +0.003*[#  13]
    |psi|^2 = 1.000
==== e(   5) =    11.74429 eV ==== 
     psi = 0.439*[#  10]+0.126*[#  11]+0.126*[#  12]+0.126*[#  13]+0.054*[#   6]
          +0.054*[#   7]+0.054*[#   9]+0.016*[#   1]+0.001*[#   2]+0.001*[#   3]
          +0.001*[#   4]
    |psi|^2 = 0.999
==== e(   6) =    15.17296 eV ==== 
     psi = 0.258*[#   6]+0.258*[#   7]+0.258*[#   9]+0.069*[#  11]+0.069*[#  12]
          +0.069*[#  13]+0.010*[#  10]+0.006*[#   1]
    |psi|^2 = 0.997
==== e(   7) =    15.56799 eV ==== 
     psi = 0.199*[#   5]+0.199*[#   8]+0.199*[#   6]+0.199*[#   7]+0.199*[#   9]
          
    |psi|^2 = 0.997
==== e(   8) =    15.56799 eV ==== 
     psi = 0.199*[#   5]+0.199*[#   8]+0.199*[#   6]+0.199*[#   7]+0.199*[#   9]
          
    |psi|^2 = 0.997
==== e(   9) =    16.76142 eV ==== 
     psi = 0.300*[#   5]+0.300*[#   8]+0.133*[#   6]+0.133*[#   7]+0.133*[#   9]
          
    |psi|^2 = 0.999
==== e(  10) =    16.76142 eV ==== 
     psi = 0.300*[#   5]+0.300*[#   8]+0.133*[#   6]+0.133*[#   7]+0.133*[#   9]
          
    |psi|^2 = 0.999

 k =  -0.3250000000  0.3250000000  0.3250000000
==== e(   1) =   -85.87564 eV ==== 
     psi = 0.965*[#   1]+0.012*[#  11]+0.012*[#  12]+0.012*[#  13]
    |psi|^2 = 1.000
==== e(   2) =   -46.31391 eV ==== 
     psi = 0.331*[#   2]+0.331*[#   3]+0.331*[#   4]+0.002*[#  10]+0.002*[#  11]
          +0.002*[#  12]+0.002*[#  13]
    |psi|^2 = 1.000
==== e(   3) =   -46.17908 eV ==== 
     psi = 0.330*[#   2]+0.330*[#   3]+0.330*[#   4]+0.003*[#  11]+0.003*[#  12]
          +0.003*[#  13]
    |psi|^2 = 1.000
==== e(   4) =   -46.17908 eV ==== 
     psi = 0.330*[#   2]+0.330*[#   3]+0.330*[#   4]+0.003*[#  11]+0.003*[#  12]
          +0.003*[#  13]
    |psi|^2 = 1.000
==== e(   5) =    12.08724 eV ==== 
     psi = 0.405*[#  10]+0.109*[#  11]+0.109*[#  12]+0.109*[#  13]+0.084*[#   6]
          +0.084*[#   7]+0.084*[#   9]+0.012*[#   1]+0.001*[#   2]+0.001*[#   3]
          +0.001*[#   4]
    |psi|^2 = 0.998
==== e(   6) =    15.32280 eV ==== 
     psi = 0.223*[#   6]+0.223*[#   7]+0.223*[#   9]+0.100*[#  11]+0.100*[#  12]
          +0.100*[#  13]+0.018*[#  10]+0.007*[#   1]
    |psi|^2 = 0.998
==== e(   7) =    15.53745 eV ==== 
     psi = 0.224*[#   5]+0.224*[#   8]+0.183*[#   6]+0.183*[#   7]+0.183*[#   9]
          
    |psi|^2 = 0.997
==== e(   8) =    15.53745 eV ==== 
     psi = 0.224*[#   5]+0.224*[#   8]+0.183*[#   6]+0.183*[#   7]+0.183*[#   9]
          
    |psi|^2 = 0.997
==== e(   9) =    16.84600 eV ==== 
     psi = 0.275*[#   5]+0.275*[#   8]+0.149*[#   6]+0.149*[#   7]+0.149*[#   9]
          
    |psi|^2 = 0.999
==== e(  10) =    16.84600 eV ==== 
     psi = 0.275*[#   5]+0.275*[#   8]+0.149*[#   6]+0.149*[#   7]+0.149*[#   9]
          
    |psi|^2 = 0.999

 k =  -0.3500000000  0.3500000000  0.3500000000
==== e(   1) =   -85.87341 eV ==== 
     psi = 0.972*[#   1]+0.009*[#  11]+0.009*[#  12]+0.009*[#  13]
    |psi|^2 = 1.000
==== e(   2) =   -46.32832 eV ==== 
     psi = 0.331*[#   2]+0.331*[#   3]+0.331*[#   4]+0.002*[#  11]+0.002*[#  12]
          +0.002*[#  13]+0.001*[#  10]
    |psi|^2 = 1.000
==== e(   3) =   -46.18117 eV ==== 
     psi = 0.331*[#   2]+0.331*[#   3]+0.331*[#   4]+0.003*[#  11]+0.003*[#  12]
          +0.003*[#  13]
    |psi|^2 = 1.000
==== e(   4) =   -46.18117 eV ==== 
     psi = 0.331*[#   2]+0.331*[#   3]+0.331*[#   4]+0.003*[#  11]+0.003*[#  12]
          +0.003*[#  13]
    |psi|^2 = 1.000
==== e(   5) =    12.37543 eV ==== 
     psi = 0.369*[#  10]+0.120*[#   6]+0.120*[#   7]+0.120*[#   9]+0.086*[#  11]
          +0.086*[#  12]+0.086*[#  13]+0.008*[#   1]+0.001*[#   2]+0.001*[#   3]
          +0.001*[#   4]
    |psi|^2 = 0.998
==== e(   6) =    15.50504 eV ==== 
     psi = 0.243*[#   5]+0.243*[#   8]+0.170*[#   6]+0.170*[#   7]+0.170*[#   9]
          
    |psi|^2 = 0.997
==== e(   7) =    15.50504 eV ==== 
     psi = 0.243*[#   5]+0.243*[#   8]+0.170*[#   6]+0.170*[#   7]+0.170*[#   9]
          
    |psi|^2 = 0.997
==== e(   8) =    15.55764 eV ==== 
     psi = 0.181*[#   6]+0.181*[#   7]+0.181*[#   9]+0.138*[#  11]+0.138*[#  12]
          +0.138*[#  13]+0.030*[#  10]+0.008*[#   1]+0.001*[#   2]+0.001*[#   3]
          +0.001*[#   4]
    |psi|^2 = 0.998
==== e(   9) =    16.93004 eV ==== 
     psi = 0.256*[#   5]+0.256*[#   8]+0.162*[#   6]+0.162*[#   7]+0.162*[#   9]
          
    |psi|^2 = 1.000
==== e(  10) =    16.93004 eV ==== 
     psi = 0.256*[#   5]+0.256*[#   8]+0.162*[#   6]+0.162*[#   7]+0.162*[#   9]
          
    |psi|^2 = 1.000

 k =  -0.3750000000  0.3750000000  0.3750000000
==== e(   1) =   -85.87142 eV ==== 
     psi = 0.979*[#   1]+0.007*[#  11]+0.007*[#  12]+0.007*[#  13]
    |psi|^2 = 1.000
==== e(   2) =   -46.34114 eV ==== 
     psi = 0.330*[#   2]+0.330*[#   3]+0.330*[#   4]+0.003*[#  11]+0.003*[#  12]
          +0.003*[#  13]
    |psi|^2 = 1.000
==== e(   3) =   -46.18304 eV ==== 
     psi = 0.331*[#   2]+0.331*[#   3]+0.331*[#   4]+0.003*[#  11]+0.003*[#  12]
          +0.003*[#  13]
    |psi|^2 = 1.000
==== e(   4) =   -46.18304 eV ==== 
     psi = 0.331*[#   2]+0.331*[#   3]+0.331*[#   4]+0.003*[#  11]+0.003*[#  12]
          +0.003*[#  13]
    |psi|^2 = 1.000
==== e(   5) =    12.59652 eV ==== 
     psi = 0.334*[#  10]+0.158*[#   6]+0.158*[#   7]+0.158*[#   9]+0.060*[#  11]
          +0.060*[#  12]+0.060*[#  13]+0.005*[#   1]
    |psi|^2 = 0.997
==== e(   6) =    15.47352 eV ==== 
     psi = 0.258*[#   5]+0.258*[#   8]+0.160*[#   6]+0.160*[#   7]+0.160*[#   9]
          
    |psi|^2 = 0.997
==== e(   7) =    15.47352 eV ==== 
     psi = 0.258*[#   5]+0.258*[#   8]+0.160*[#   6]+0.160*[#   7]+0.160*[#   9]
          
    |psi|^2 = 0.997
==== e(   8) =    15.88040 eV ==== 
     psi = 0.180*[#  11]+0.180*[#  12]+0.180*[#  13]+0.135*[#   6]+0.135*[#   7]
          +0.135*[#   9]+0.042*[#  10]+0.007*[#   1]+0.002*[#   2]+0.002*[#   3]
          +0.002*[#   4]
    |psi|^2 = 0.999
==== e(   9) =    17.00913 eV ==== 
     psi = 0.241*[#   5]+0.241*[#   8]+0.172*[#   6]+0.172*[#   7]+0.172*[#   9]
          
    |psi|^2 = 1.000
==== e(  10) =    17.00913 eV ==== 
     psi = 0.241*[#   5]+0.241*[#   8]+0.172*[#   6]+0.172*[#   7]+0.172*[#   9]
          
    |psi|^2 = 1.000

 k =  -0.4000000000  0.4000000000  0.4000000000
==== e(   1) =   -85.86972 eV ==== 
     psi = 0.985*[#   1]+0.005*[#  11]+0.005*[#  12]+0.005*[#  13]
    |psi|^2 = 1.000
==== e(   2) =   -46.35209 eV ==== 
     psi = 0.330*[#   2]+0.330*[#   3]+0.330*[#   4]+0.003*[#  11]+0.003*[#  12]
          +0.003*[#  13]
    |psi|^2 = 1.000
==== e(   3) =   -46.18464 eV ==== 
     psi = 0.331*[#   2]+0.331*[#   3]+0.331*[#   4]+0.003*[#  11]+0.003*[#  12]
          +0.003*[#  13]
    |psi|^2 = 1.000
==== e(   4) =   -46.18464 eV ==== 
     psi = 0.331*[#   2]+0.331*[#   3]+0.331*[#   4]+0.003*[#  11]+0.003*[#  12]
          +0.003*[#  13]
    |psi|^2 = 1.000
==== e(   5) =    12.75181 eV ==== 
     psi = 0.304*[#  10]+0.192*[#   6]+0.192*[#   7]+0.192*[#   9]+0.037*[#  11]
          +0.037*[#  12]+0.037*[#  13]+0.003*[#   1]
    |psi|^2 = 0.997
==== e(   6) =    15.44502 eV ==== 
     psi = 0.269*[#   5]+0.269*[#   8]+0.153*[#   6]+0.153*[#   7]+0.153*[#   9]
          
    |psi|^2 = 0.997
==== e(   7) =    15.44502 eV ==== 
     psi = 0.269*[#   5]+0.269*[#   8]+0.153*[#   6]+0.153*[#   7]+0.153*[#   9]
          
    |psi|^2 = 0.997
==== e(   8) =    16.27338 eV ==== 
     psi = 0.221*[#  11]+0.221*[#  12]+0.221*[#  13]+0.092*[#   6]+0.092*[#   7]
          +0.092*[#   9]+0.048*[#  10]+0.006*[#   1]+0.002*[#   2]+0.002*[#   3]
          +0.002*[#   4]
    |psi|^2 = 0.999
==== e(   9) =    17.07930 eV ==== 
     psi = 0.230*[#   5]+0.230*[#   8]+0.180*[#   6]+0.180*[#   7]+0.180*[#   9]
          
    |psi|^2 = 1.000
==== e(  10) =    17.07930 eV ==== 
     psi = 0.230*[#   5]+0.230*[#   8]+0.180*[#   6]+0.180*[#   7]+0.180*[#   9]
          
    |psi|^2 = 1.000

 k =  -0.4250000000  0.4250000000  0.4250000000
==== e(   1) =   -85.86835 eV ==== 
     psi = 0.991*[#   1]+0.003*[#  11]+0.003*[#  12]+0.003*[#  13]
    |psi|^2 = 1.000
==== e(   2) =   -46.36089 eV ==== 
     psi = 0.330*[#   2]+0.330*[#   3]+0.330*[#   4]+0.003*[#  11]+0.003*[#  12]
          +0.003*[#  13]
    |psi|^2 = 1.000
==== e(   3) =   -46.18592 eV ==== 
     psi = 0.331*[#   2]+0.331*[#   3]+0.331*[#   4]+0.003*[#  11]+0.003*[#  12]
          +0.003*[#  13]
    |psi|^2 = 1.000
==== e(   4) =   -46.18592 eV ==== 
     psi = 0.331*[#   2]+0.331*[#   3]+0.331*[#   4]+0.003*[#  11]+0.003*[#  12]
          +0.003*[#  13]
    |psi|^2 = 1.000
==== e(   5) =    12.85286 eV ==== 
     psi = 0.280*[#  10]+0.218*[#   6]+0.218*[#   7]+0.218*[#   9]+0.020*[#  11]
          +0.020*[#  12]+0.020*[#  13]+0.001*[#   1]
    |psi|^2 = 0.996
==== e(   6) =    15.42126 eV ==== 
     psi = 0.277*[#   5]+0.277*[#   8]+0.148*[#   6]+0.148*[#   7]+0.148*[#   9]
          
    |psi|^2 = 0.997
==== e(   7) =    15.42126 eV ==== 
     psi = 0.277*[#   5]+0.277*[#   8]+0.148*[#   6]+0.148*[#   7]+0.148*[#   9]
          
    |psi|^2 = 0.997
==== e(   8) =    16.69787 eV ==== 
     psi = 0.259*[#  11]+0.259*[#  12]+0.259*[#  13]+0.056*[#   6]+0.056*[#   7]
          +0.056*[#   9]+0.043*[#  10]+0.004*[#   1]+0.003*[#   2]+0.003*[#   3]
          +0.003*[#   4]
    |psi|^2 = 1.000
==== e(   9) =    17.13737 eV ==== 
     psi = 0.222*[#   5]+0.222*[#   8]+0.185*[#   6]+0.185*[#   7]+0.185*[#   9]
          
    |psi|^2 = 1.000
==== e(  10) =    17.13737 eV ==== 
     psi = 0.222*[#   5]+0.222*[#   8]+0.185*[#   6]+0.185*[#   7]+0.185*[#   9]
          
    |psi|^2 = 1.000

 k =  -0.4500000000  0.4500000000  0.4500000000
==== e(   1) =   -85.86735 eV ==== 
     psi = 0.995*[#   1]+0.001*[#  11]+0.001*[#  12]+0.001*[#  13]
    |psi|^2 = 1.000
==== e(   2) =   -46.36732 eV ==== 
     psi = 0.330*[#   2]+0.330*[#   3]+0.330*[#   4]+0.004*[#  11]+0.004*[#  12]
          +0.004*[#  13]
    |psi|^2 = 1.000
==== e(   3) =   -46.18686 eV ==== 
     psi = 0.331*[#   2]+0.331*[#   3]+0.331*[#   4]+0.003*[#  11]+0.003*[#  12]
          +0.003*[#  13]
    |psi|^2 = 1.000
==== e(   4) =   -46.18686 eV ==== 
     psi = 0.331*[#   2]+0.331*[#   3]+0.331*[#   4]+0.003*[#  11]+0.003*[#  12]
          +0.003*[#  13]
    |psi|^2 = 1.000
==== e(   5) =    12.91371 eV ==== 
     psi = 0.264*[#  10]+0.235*[#   6]+0.235*[#   7]+0.235*[#   9]+0.009*[#  11]
          +0.009*[#  12]+0.009*[#  13]
    |psi|^2 = 0.996
==== e(   6) =    15.40345 eV ==== 
     psi = 0.282*[#   5]+0.282*[#   8]+0.144*[#   6]+0.144*[#   7]+0.144*[#   9]
          
    |psi|^2 = 0.996
==== e(   7) =    15.40345 eV ==== 
     psi = 0.282*[#   5]+0.282*[#   8]+0.144*[#   6]+0.144*[#   7]+0.144*[#   9]
          
    |psi|^2 = 0.996
==== e(   8) =    17.09573 eV ==== 
     psi = 0.293*[#  11]+0.293*[#  12]+0.293*[#  13]+0.028*[#  10]+0.027*[#   6]
          +0.027*[#   7]+0.027*[#   9]+0.003*[#   2]+0.003*[#   3]+0.003*[#   4]
          +0.002*[#   1]
    |psi|^2 = 1.000
==== e(   9) =    17.18080 eV ==== 
     psi = 0.217*[#   5]+0.217*[#   8]+0.189*[#   6]+0.189*[#   7]+0.189*[#   9]
          
    |psi|^2 = 1.000
==== e(  10) =    17.18080 eV ==== 
     psi = 0.217*[#   5]+0.217*[#   8]+0.189*[#   6]+0.189*[#   7]+0.189*[#   9]
          
    |psi|^2 = 1.000

 k =  -0.4750000000  0.4750000000  0.4750000000
==== e(   1) =   -85.86674 eV ==== 
     psi = 0.998*[#   1]
    |psi|^2 = 1.000
==== e(   2) =   -46.37125 eV ==== 
     psi = 0.330*[#   2]+0.330*[#   3]+0.330*[#   4]+0.004*[#  11]+0.004*[#  12]
          +0.004*[#  13]
    |psi|^2 = 1.000
==== e(   3) =   -46.18743 eV ==== 
     psi = 0.331*[#   2]+0.331*[#   3]+0.331*[#   4]+0.003*[#  11]+0.003*[#  12]
          +0.003*[#  13]
    |psi|^2 = 1.000
==== e(   4) =   -46.18743 eV ==== 
     psi = 0.331*[#   2]+0.331*[#   3]+0.331*[#   4]+0.003*[#  11]+0.003*[#  12]
          +0.003*[#  13]
    |psi|^2 = 1.000
==== e(   5) =    12.94568 eV ==== 
     psi = 0.255*[#  10]+0.245*[#   6]+0.245*[#   7]+0.245*[#   9]+0.002*[#  11]
          +0.002*[#  12]+0.002*[#  13]
    |psi|^2 = 0.996
==== e(   6) =    15.39244 eV ==== 
     psi = 0.285*[#   5]+0.285*[#   8]+0.142*[#   6]+0.142*[#   7]+0.142*[#   9]
          
    |psi|^2 = 0.996
==== e(   7) =    15.39244 eV ==== 
     psi = 0.285*[#   5]+0.285*[#   8]+0.142*[#   6]+0.142*[#   7]+0.142*[#   9]
          
    |psi|^2 = 0.996
==== e(   8) =    17.20763 eV ==== 
     psi = 0.214*[#   5]+0.214*[#   8]+0.191*[#   6]+0.191*[#   7]+0.191*[#   9]
          
    |psi|^2 = 1.000
==== e(   9) =    17.20763 eV ==== 
     psi = 0.214*[#   5]+0.214*[#   8]+0.191*[#   6]+0.191*[#   7]+0.191*[#   9]
          
    |psi|^2 = 1.000
==== e(  10) =    17.38989 eV ==== 
     psi = 0.319*[#  11]+0.319*[#  12]+0.319*[#  13]+0.009*[#  10]+0.007*[#   6]
          +0.007*[#   7]+0.007*[#   9]+0.004*[#   2]+0.004*[#   3]+0.004*[#   4]
          
    |psi|^2 = 1.000

 k =  -0.5000000000  0.5000000000  0.5000000000
==== e(   1) =   -85.86653 eV ==== 
     psi = 0.999*[#   1]
    |psi|^2 = 1.000
==== e(   2) =   -46.37256 eV ==== 
     psi = 0.329*[#   2]+0.329*[#   3]+0.329*[#   4]+0.004*[#  11]+0.004*[#  12]
          +0.004*[#  13]
    |psi|^2 = 1.000
==== e(   3) =   -46.18762 eV ==== 
     psi = 0.331*[#   2]+0.331*[#   3]+0.331*[#   4]+0.003*[#  11]+0.003*[#  12]
          +0.003*[#  13]
    |psi|^2 = 1.000
==== e(   4) =   -46.18762 eV ==== 
     psi = 0.331*[#   2]+0.331*[#   3]+0.331*[#   4]+0.003*[#  11]+0.003*[#  12]
          +0.003*[#  13]
    |psi|^2 = 1.000
==== e(   5) =    12.95559 eV ==== 
     psi = 0.252*[#  10]+0.248*[#   6]+0.248*[#   7]+0.248*[#   9]
    |psi|^2 = 0.996
==== e(   6) =    15.38875 eV ==== 
     psi = 0.286*[#   5]+0.286*[#   8]+0.141*[#   6]+0.141*[#   7]+0.141*[#   9]
          
    |psi|^2 = 0.996
==== e(   7) =    15.38875 eV ==== 
     psi = 0.286*[#   5]+0.286*[#   8]+0.141*[#   6]+0.141*[#   7]+0.141*[#   9]
          
    |psi|^2 = 0.996
==== e(   8) =    17.21675 eV ==== 
     psi = 0.213*[#   5]+0.213*[#   8]+0.192*[#   6]+0.192*[#   7]+0.192*[#   9]
          
    |psi|^2 = 1.000
==== e(   9) =    17.21675 eV ==== 
     psi = 0.213*[#   5]+0.213*[#   8]+0.192*[#   6]+0.192*[#   7]+0.192*[#   9]
          
    |psi|^2 = 1.000
==== e(  10) =    17.50041 eV ==== 
     psi = 0.329*[#  11]+0.329*[#  12]+0.329*[#  13]+0.004*[#   2]+0.004*[#   3]
          +0.004*[#   4]
    |psi|^2 = 0.999

 k =  -0.5500000000  0.5000000000  0.4500000000
==== e(   1) =   -85.86627 eV ==== 
     psi = 0.998*[#   1]
    |psi|^2 = 1.000
==== e(   2) =   -46.37128 eV ==== 
     psi = 0.330*[#   2]+0.330*[#   3]+0.330*[#   4]+0.004*[#  11]+0.004*[#  12]
          +0.004*[#  13]
    |psi|^2 = 1.000
==== e(   3) =   -46.19038 eV ==== 
     psi = 0.331*[#   2]+0.331*[#   3]+0.331*[#   4]+0.002*[#  11]+0.002*[#  12]
          +0.002*[#  13]
    |psi|^2 = 1.000
==== e(   4) =   -46.18838 eV ==== 
     psi = 0.331*[#   2]+0.331*[#   3]+0.331*[#   4]+0.003*[#  11]+0.003*[#  12]
          +0.003*[#  13]
    |psi|^2 = 1.000
==== e(   5) =    12.99815 eV ==== 
     psi = 0.248*[#   6]+0.248*[#   7]+0.248*[#   9]+0.242*[#  10]+0.003*[#  11]
          +0.003*[#  12]+0.003*[#  13]
    |psi|^2 = 0.996
==== e(   6) =    15.35817 eV ==== 
     psi = 0.294*[#   5]+0.294*[#   8]+0.135*[#   6]+0.135*[#   7]+0.135*[#   9]
          +0.001*[#  11]+0.001*[#  12]+0.001*[#  13]
    |psi|^2 = 0.996
==== e(   7) =    15.41596 eV ==== 
     psi = 0.288*[#   5]+0.288*[#   8]+0.140*[#   6]+0.140*[#   7]+0.140*[#   9]
          
    |psi|^2 = 0.997
==== e(   8) =    16.77148 eV ==== 
     psi = 0.138*[#   6]+0.138*[#   7]+0.138*[#   9]+0.121*[#   5]+0.121*[#   8]
          +0.114*[#  11]+0.114*[#  12]+0.114*[#  13]+0.001*[#   2]+0.001*[#   3]
          +0.001*[#   4]
    |psi|^2 = 1.000
==== e(   9) =    17.21222 eV ==== 
     psi = 0.211*[#   5]+0.211*[#   8]+0.193*[#   6]+0.193*[#   7]+0.193*[#   9]
          
    |psi|^2 = 1.000
==== e(  10) =    18.01269 eV ==== 
     psi = 0.215*[#  11]+0.215*[#  12]+0.215*[#  13]+0.084*[#   5]+0.084*[#   8]
          +0.060*[#   6]+0.060*[#   7]+0.060*[#   9]+0.002*[#   2]+0.002*[#   3]
          +0.002*[#   4]
    |psi|^2 = 1.000

 k =  -0.6000000000  0.5000000000  0.4000000000
==== e(   1) =   -85.86549 eV ==== 
     psi = 0.994*[#   1]+0.001*[#  11]+0.001*[#  12]+0.001*[#  13]
    |psi|^2 = 1.000
==== e(   2) =   -46.36750 eV ==== 
     psi = 0.330*[#   2]+0.330*[#   3]+0.330*[#   4]+0.004*[#  11]+0.004*[#  12]
          +0.004*[#  13]
    |psi|^2 = 1.000
==== e(   3) =   -46.19835 eV ==== 
     psi = 0.331*[#   2]+0.331*[#   3]+0.331*[#   4]+0.002*[#  11]+0.002*[#  12]
          +0.002*[#  13]
    |psi|^2 = 1.000
==== e(   4) =   -46.19061 eV ==== 
     psi = 0.331*[#   2]+0.331*[#   3]+0.331*[#   4]+0.002*[#  11]+0.002*[#  12]
          +0.002*[#  13]
    |psi|^2 = 1.000
==== e(   5) =    13.12211 eV ==== 
     psi = 0.249*[#   6]+0.249*[#   7]+0.249*[#   9]+0.217*[#  10]+0.011*[#  11]
          +0.011*[#  12]+0.011*[#  13]
    |psi|^2 = 0.997
==== e(   6) =    15.26672 eV ==== 
     psi = 0.318*[#   5]+0.318*[#   8]+0.114*[#   6]+0.114*[#   7]+0.114*[#   9]
          +0.006*[#  11]+0.006*[#  12]+0.006*[#  13]
    |psi|^2 = 0.995
==== e(   7) =    15.49711 eV ==== 
     psi = 0.292*[#   5]+0.292*[#   8]+0.137*[#   6]+0.137*[#   7]+0.137*[#   9]
          
    |psi|^2 = 0.997
==== e(   8) =    16.28273 eV ==== 
     psi = 0.158*[#   6]+0.158*[#   7]+0.158*[#   9]+0.116*[#  11]+0.116*[#  12]
          +0.116*[#  13]+0.086*[#   5]+0.086*[#   8]+0.001*[#   2]+0.001*[#   3]
          +0.001*[#   4]
    |psi|^2 = 1.000
==== e(   9) =    17.19907 eV ==== 
     psi = 0.206*[#   5]+0.206*[#   8]+0.196*[#   6]+0.196*[#   7]+0.196*[#   9]
          
    |psi|^2 = 1.000
==== e(  10) =    18.70526 eV ==== 
     psi = 0.209*[#  11]+0.209*[#  12]+0.209*[#  13]+0.093*[#   5]+0.093*[#   8]
          +0.061*[#   6]+0.061*[#   7]+0.061*[#   9]+0.002*[#   2]+0.002*[#   3]
          +0.002*[#   4]
    |psi|^2 = 1.000

 k =  -0.6500000000  0.5000000000  0.3500000000
==== e(   1) =   -85.86427 eV ==== 
     psi = 0.991*[#   1]+0.002*[#  11]+0.002*[#  12]+0.002*[#  13]+0.001*[#  10]
          
    |psi|^2 = 1.000
==== e(   2) =   -46.36137 eV ==== 
     psi = 0.330*[#   2]+0.330*[#   3]+0.330*[#   4]+0.003*[#  11]+0.003*[#  12]
          +0.003*[#  13]
    |psi|^2 = 1.000
==== e(   3) =   -46.21075 eV ==== 
     psi = 0.332*[#   2]+0.332*[#   3]+0.332*[#   4]+0.001*[#  11]+0.001*[#  12]
          +0.001*[#  13]
    |psi|^2 = 1.000
==== e(   4) =   -46.19430 eV ==== 
     psi = 0.331*[#   2]+0.331*[#   3]+0.331*[#   4]+0.002*[#  11]+0.002*[#  12]
          +0.002*[#  13]
    |psi|^2 = 1.000
==== e(   5) =    13.31598 eV ==== 
     psi = 0.251*[#   6]+0.251*[#   7]+0.251*[#   9]+0.181*[#  10]+0.020*[#  11]
          +0.020*[#  12]+0.020*[#  13]
    |psi|^2 = 0.997
==== e(   6) =    15.11502 eV ==== 
     psi = 0.357*[#   5]+0.357*[#   8]+0.078*[#   6]+0.078*[#   7]+0.078*[#   9]
          +0.015*[#  11]+0.015*[#  12]+0.015*[#  13]
    |psi|^2 = 0.995
==== e(   7) =    15.62927 eV ==== 
     psi = 0.301*[#   5]+0.301*[#   8]+0.130*[#   6]+0.130*[#   7]+0.130*[#   9]
          +0.002*[#  11]+0.002*[#  12]+0.002*[#  13]
    |psi|^2 = 0.997
==== e(   8) =    15.87181 eV ==== 
     psi = 0.198*[#   6]+0.198*[#   7]+0.198*[#   9]+0.102*[#  11]+0.102*[#  12]
          +0.102*[#  13]+0.049*[#   5]+0.049*[#   8]+0.001*[#   2]+0.001*[#   3]
          +0.001*[#   4]
    |psi|^2 = 1.000
==== e(   9) =    17.17847 eV ==== 
     psi = 0.203*[#   6]+0.203*[#   7]+0.203*[#   9]+0.195*[#   5]+0.195*[#   8]
          
    |psi|^2 = 1.000
==== e(  10) =    19.46333 eV ==== 
     psi = 0.215*[#  11]+0.215*[#  12]+0.215*[#  13]+0.090*[#   5]+0.090*[#   8]
          +0.056*[#   6]+0.056*[#   7]+0.056*[#   9]+0.002*[#   2]+0.002*[#   3]
          +0.002*[#   4]
    |psi|^2 = 0.999

 k =  -0.7000000000  0.5000000000  0.3000000000
==== e(   1) =   -85.86274 eV ==== 
     psi = 0.988*[#   1]+0.003*[#  11]+0.003*[#  12]+0.003*[#  13]+0.002*[#  10]
          
    |psi|^2 = 1.000
==== e(   2) =   -46.35322 eV ==== 
     psi = 0.331*[#   2]+0.331*[#   3]+0.331*[#   4]+0.003*[#  11]+0.003*[#  12]
          +0.003*[#  13]
    |psi|^2 = 1.000
==== e(   3) =   -46.22636 eV ==== 
     psi = 0.333*[#   2]+0.333*[#   3]+0.333*[#   4]
    |psi|^2 = 1.000
==== e(   4) =   -46.19941 eV ==== 
     psi = 0.332*[#   2]+0.332*[#   3]+0.332*[#   4]+0.002*[#  11]+0.002*[#  12]
          +0.002*[#  13]
    |psi|^2 = 1.000
==== e(   5) =    13.56136 eV ==== 
     psi = 0.255*[#   6]+0.255*[#   7]+0.255*[#   9]+0.142*[#  10]+0.029*[#  11]
          +0.029*[#  12]+0.029*[#  13]+0.002*[#   5]+0.002*[#   8]
    |psi|^2 = 0.997
==== e(   6) =    14.91058 eV ==== 
     psi = 0.394*[#   5]+0.394*[#   8]+0.039*[#   6]+0.039*[#   7]+0.039*[#   9]
          +0.030*[#  11]+0.030*[#  12]+0.030*[#  13]
    |psi|^2 = 0.994
==== e(   7) =    15.54754 eV ==== 
     psi = 0.241*[#   6]+0.241*[#   7]+0.241*[#   9]+0.081*[#  11]+0.081*[#  12]
          +0.081*[#  13]+0.016*[#   5]+0.016*[#   8]
    |psi|^2 = 0.999
==== e(   8) =    15.80547 eV ==== 
     psi = 0.317*[#   5]+0.317*[#   8]+0.119*[#   6]+0.119*[#   7]+0.119*[#   9]
          +0.003*[#  11]+0.003*[#  12]+0.003*[#  13]
    |psi|^2 = 0.998
==== e(   9) =    17.15347 eV ==== 
     psi = 0.215*[#   6]+0.215*[#   7]+0.215*[#   9]+0.177*[#   5]+0.177*[#   8]
          
    |psi|^2 = 1.000
==== e(  10) =    20.28076 eV ==== 
     psi = 0.224*[#  11]+0.224*[#  12]+0.224*[#  13]+0.084*[#   5]+0.084*[#   8]
          +0.052*[#   6]+0.052*[#   7]+0.052*[#   9]+0.002*[#   2]+0.002*[#   3]
          +0.002*[#   4]
    |psi|^2 = 0.999

 k =  -0.7500000000  0.5000000000  0.2500000000
==== e(   1) =   -85.86105 eV ==== 
     psi = 0.987*[#   1]+0.004*[#  10]+0.003*[#  11]+0.003*[#  12]+0.003*[#  13]
          
    |psi|^2 = 1.000
==== e(   2) =   -46.34343 eV ==== 
     psi = 0.331*[#   2]+0.331*[#   3]+0.331*[#   4]+0.002*[#  11]+0.002*[#  12]
          +0.002*[#  13]
    |psi|^2 = 1.000
==== e(   3) =   -46.24364 eV ==== 
     psi = 0.333*[#   2]+0.333*[#   3]+0.333*[#   4]
    |psi|^2 = 1.000
==== e(   4) =   -46.20581 eV ==== 
     psi = 0.332*[#   2]+0.332*[#   3]+0.332*[#   4]+0.001*[#  11]+0.001*[#  12]
          +0.001*[#  13]
    |psi|^2 = 1.000
==== e(   5) =    13.83452 eV ==== 
     psi = 0.260*[#   6]+0.260*[#   7]+0.260*[#   9]+0.104*[#  10]+0.035*[#  11]
          +0.035*[#  12]+0.035*[#  13]+0.004*[#   5]+0.004*[#   8]
    |psi|^2 = 0.997
==== e(   6) =    14.67961 eV ==== 
     psi = 0.413*[#   5]+0.413*[#   8]+0.043*[#  11]+0.043*[#  12]+0.043*[#  13]
          +0.014*[#   6]+0.014*[#   7]+0.014*[#   9]
    |psi|^2 = 0.995
==== e(   7) =    15.29884 eV ==== 
     psi = 0.269*[#   6]+0.269*[#   7]+0.269*[#   9]+0.062*[#  11]+0.062*[#  12]
          +0.062*[#  13]+0.002*[#   5]+0.002*[#   8]
    |psi|^2 = 0.998
==== e(   8) =    16.01025 eV ==== 
     psi = 0.344*[#   5]+0.344*[#   8]+0.099*[#   6]+0.099*[#   7]+0.099*[#   9]
          +0.004*[#  11]+0.004*[#  12]+0.004*[#  13]
    |psi|^2 = 0.998
==== e(   9) =    17.13135 eV ==== 
     psi = 0.235*[#   6]+0.235*[#   7]+0.235*[#   9]+0.147*[#   5]+0.147*[#   8]
          +0.002*[#  10]
    |psi|^2 = 1.000
==== e(  10) =    21.15466 eV ==== 
     psi = 0.235*[#  11]+0.235*[#  12]+0.235*[#  13]+0.075*[#   5]+0.075*[#   8]
          +0.047*[#   6]+0.047*[#   7]+0.047*[#   9]+0.001*[#   2]+0.001*[#   3]
          +0.001*[#   4]
    |psi|^2 = 0.999

 k =  -0.8000000000  0.5000000000  0.2000000000
==== e(   1) =   -85.85935 eV ==== 
     psi = 0.988*[#   1]+0.005*[#  10]+0.002*[#  11]+0.002*[#  12]+0.002*[#  13]
          
    |psi|^2 = 1.000
==== e(   2) =   -46.33255 eV ==== 
     psi = 0.332*[#   2]+0.332*[#   3]+0.332*[#   4]+0.002*[#  11]+0.002*[#  12]
          +0.002*[#  13]
    |psi|^2 = 1.000
==== e(   3) =   -46.26089 eV ==== 
     psi = 0.333*[#   2]+0.333*[#   3]+0.333*[#   4]
    |psi|^2 = 1.000
==== e(   4) =   -46.21331 eV ==== 
     psi = 0.332*[#   2]+0.332*[#   3]+0.332*[#   4]+0.001*[#  11]+0.001*[#  12]
          +0.001*[#  13]
    |psi|^2 = 1.000
==== e(   5) =    14.10937 eV ==== 
     psi = 0.266*[#   6]+0.266*[#   7]+0.266*[#   9]+0.070*[#  10]+0.039*[#  11]
          +0.039*[#  12]+0.039*[#  13]+0.005*[#   5]+0.005*[#   8]
    |psi|^2 = 0.998
==== e(   6) =    14.45831 eV ==== 
     psi = 0.419*[#   5]+0.419*[#   8]+0.048*[#  11]+0.048*[#  12]+0.048*[#  13]
          +0.004*[#   6]+0.004*[#   7]+0.004*[#   9]
    |psi|^2 = 0.995
==== e(   7) =    15.10420 eV ==== 
     psi = 0.282*[#   6]+0.282*[#   7]+0.282*[#   9]+0.050*[#  11]+0.050*[#  12]
          +0.050*[#  13]
    |psi|^2 = 0.998
==== e(   8) =    16.21327 eV ==== 
     psi = 0.389*[#   5]+0.389*[#   8]+0.068*[#   6]+0.068*[#   7]+0.068*[#   9]
          +0.004*[#  11]+0.004*[#  12]+0.004*[#  13]+0.002*[#  10]
    |psi|^2 = 0.999
==== e(   9) =    17.12754 eV ==== 
     psi = 0.266*[#   6]+0.266*[#   7]+0.266*[#   9]+0.099*[#   5]+0.099*[#   8]
          +0.002*[#  10]
    |psi|^2 = 1.000
==== e(  10) =    22.08153 eV ==== 
     psi = 0.246*[#  11]+0.246*[#  12]+0.246*[#  13]+0.064*[#   5]+0.064*[#   8]
          +0.043*[#   6]+0.043*[#   7]+0.043*[#   9]+0.001*[#   2]+0.001*[#   3]
          +0.001*[#   4]
    |psi|^2 = 0.998

 k =  -0.8500000000  0.5000000000  0.1500000000
==== e(   1) =   -85.85782 eV ==== 
     psi = 0.989*[#   1]+0.006*[#  10]+0.002*[#  11]+0.002*[#  12]+0.002*[#  13]
          
    |psi|^2 = 1.000
==== e(   2) =   -46.32130 eV ==== 
     psi = 0.332*[#   2]+0.332*[#   3]+0.332*[#   4]+0.001*[#  11]+0.001*[#  12]
          +0.001*[#  13]
    |psi|^2 = 1.000
==== e(   3) =   -46.27643 eV ==== 
     psi = 0.333*[#   2]+0.333*[#   3]+0.333*[#   4]
    |psi|^2 = 1.000
==== e(   4) =   -46.22150 eV ==== 
     psi = 0.333*[#   2]+0.333*[#   3]+0.333*[#   4]
    |psi|^2 = 1.000
==== e(   5) =    14.27241 eV ==== 
     psi = 0.423*[#   5]+0.423*[#   8]+0.049*[#  11]+0.049*[#  12]+0.049*[#  13]
          
    |psi|^2 = 0.996
==== e(   6) =    14.36029 eV ==== 
     psi = 0.273*[#   6]+0.273*[#   7]+0.273*[#   9]+0.041*[#  10]+0.041*[#  11]
          +0.041*[#  12]+0.041*[#  13]+0.006*[#   5]+0.006*[#   8]
    |psi|^2 = 0.998
==== e(   7) =    14.95129 eV ==== 
     psi = 0.287*[#   6]+0.287*[#   7]+0.287*[#   9]+0.044*[#  11]+0.044*[#  12]
          +0.044*[#  13]
    |psi|^2 = 0.998
==== e(   8) =    16.36876 eV ==== 
     psi = 0.443*[#   5]+0.443*[#   8]+0.032*[#   6]+0.032*[#   7]+0.032*[#   9]
          +0.007*[#  10]+0.003*[#  11]+0.003*[#  12]+0.003*[#  13]
    |psi|^2 = 0.999
==== e(   9) =    17.16502 eV ==== 
     psi = 0.304*[#   6]+0.304*[#   7]+0.304*[#   9]+0.043*[#   5]+0.043*[#   8]
          +0.002*[#  10]
    |psi|^2 = 1.000
==== e(  10) =    23.05434 eV ==== 
     psi = 0.257*[#  11]+0.257*[#  12]+0.257*[#  13]+0.052*[#   5]+0.052*[#   8]
          +0.040*[#   6]+0.040*[#   7]+0.040*[#   9]
    |psi|^2 = 0.997

 k =  -0.9000000000  0.5000000000  0.1000000000
==== e(   1) =   -85.85660 eV ==== 
     psi = 0.991*[#   1]+0.007*[#  10]
    |psi|^2 = 1.000
==== e(   2) =   -46.31074 eV ==== 
     psi = 0.333*[#   2]+0.333*[#   3]+0.333*[#   4]
    |psi|^2 = 1.000
==== e(   3) =   -46.28875 eV ==== 
     psi = 0.333*[#   2]+0.333*[#   3]+0.333*[#   4]
    |psi|^2 = 1.000
==== e(   4) =   -46.22963 eV ==== 
     psi = 0.333*[#   2]+0.333*[#   3]+0.333*[#   4]
    |psi|^2 = 1.000
==== e(   5) =    14.13461 eV ==== 
     psi = 0.427*[#   5]+0.427*[#   8]+0.047*[#  11]+0.047*[#  12]+0.047*[#  13]
          
    |psi|^2 = 0.996
==== e(   6) =    14.56372 eV ==== 
     psi = 0.281*[#   6]+0.281*[#   7]+0.281*[#   9]+0.042*[#  11]+0.042*[#  12]
          +0.042*[#  13]+0.019*[#  10]+0.004*[#   5]+0.004*[#   8]
    |psi|^2 = 0.998
==== e(   7) =    14.83851 eV ==== 
     psi = 0.289*[#   6]+0.289*[#   7]+0.289*[#   9]+0.042*[#  11]+0.042*[#  12]
          +0.042*[#  13]
    |psi|^2 = 0.998
==== e(   8) =    16.44621 eV ==== 
     psi = 0.477*[#   5]+0.477*[#   8]+0.013*[#  10]+0.009*[#   6]+0.009*[#   7]
          +0.009*[#   9]+0.002*[#  11]+0.002*[#  12]+0.002*[#  13]
    |psi|^2 = 0.999
==== e(   9) =    17.24740 eV ==== 
     psi = 0.327*[#   6]+0.327*[#   7]+0.327*[#   9]+0.009*[#   5]+0.009*[#   8]
          
    |psi|^2 = 1.000
==== e(  10) =    24.05348 eV ==== 
     psi = 0.269*[#  11]+0.269*[#  12]+0.269*[#  13]+0.038*[#   6]+0.038*[#   7]
          +0.038*[#   9]+0.037*[#   5]+0.037*[#   8]
    |psi|^2 = 0.996

 k =  -0.9500000000  0.5000000000  0.0500000000
==== e(   1) =   -85.85583 eV ==== 
     psi = 0.992*[#   1]+0.007*[#  10]
    |psi|^2 = 1.000
==== e(   2) =   -46.30260 eV ==== 
     psi = 0.333*[#   2]+0.333*[#   3]+0.333*[#   4]
    |psi|^2 = 1.000
==== e(   3) =   -46.29666 eV ==== 
     psi = 0.333*[#   2]+0.333*[#   3]+0.333*[#   4]
    |psi|^2 = 1.000
==== e(   4) =   -46.23622 eV ==== 
     psi = 0.333*[#   2]+0.333*[#   3]+0.333*[#   4]
    |psi|^2 = 1.000
==== e(   5) =    14.05046 eV ==== 
     psi = 0.430*[#   5]+0.430*[#   8]+0.045*[#  11]+0.045*[#  12]+0.045*[#  13]
          
    |psi|^2 = 0.996
==== e(   6) =    14.69789 eV ==== 
     psi = 0.288*[#   6]+0.288*[#   7]+0.288*[#   9]+0.042*[#  11]+0.042*[#  12]
          +0.042*[#  13]+0.005*[#  10]+0.002*[#   5]+0.002*[#   8]
    |psi|^2 = 0.998
==== e(   7) =    14.76871 eV ==== 
     psi = 0.290*[#   6]+0.290*[#   7]+0.290*[#   9]+0.042*[#  11]+0.042*[#  12]
          +0.042*[#  13]
    |psi|^2 = 0.998
==== e(   8) =    16.46620 eV ==== 
     psi = 0.487*[#   5]+0.487*[#   8]+0.018*[#  10]+0.001*[#   6]+0.001*[#   7]
          +0.001*[#   9]
    |psi|^2 = 0.999
==== e(   9) =    17.33144 eV ==== 
     psi = 0.333*[#   6]+0.333*[#   7]+0.333*[#   9]
    |psi|^2 = 1.000
==== e(  10) =    25.00352 eV ==== 
     psi = 0.281*[#  11]+0.281*[#  12]+0.281*[#  13]+0.039*[#   6]+0.039*[#   7]
          +0.039*[#   9]+0.018*[#   5]+0.018*[#   8]
    |psi|^2 = 0.995

 k =  -1.0000000000  0.5000000000  0.0000000000
==== e(   1) =   -85.85556 eV ==== 
     psi = 0.993*[#   1]+0.007*[#  10]
    |psi|^2 = 1.000
==== e(   2) =   -46.29938 eV ==== 
     psi = 0.333*[#   2]+0.333*[#   3]+0.333*[#   4]
    |psi|^2 = 1.000
==== e(   3) =   -46.29938 eV ==== 
     psi = 0.333*[#   2]+0.333*[#   3]+0.333*[#   4]
    |psi|^2 = 1.000
==== e(   4) =   -46.23890 eV ==== 
     psi = 0.333*[#   2]+0.333*[#   3]+0.333*[#   4]
    |psi|^2 = 1.000
==== e(   5) =    14.02223 eV ==== 
     psi = 0.431*[#   5]+0.431*[#   8]+0.045*[#  11]+0.045*[#  12]+0.045*[#  13]
          
    |psi|^2 = 0.996
==== e(   6) =    14.74508 eV ==== 
     psi = 0.290*[#   6]+0.290*[#   7]+0.290*[#   9]+0.042*[#  11]+0.042*[#  12]
          +0.042*[#  13]
    |psi|^2 = 0.998
==== e(   7) =    14.74508 eV ==== 
     psi = 0.290*[#   6]+0.290*[#   7]+0.290*[#   9]+0.042*[#  11]+0.042*[#  12]
          +0.042*[#  13]
    |psi|^2 = 0.998
==== e(   8) =    16.46749 eV ==== 
     psi = 0.489*[#   5]+0.489*[#   8]+0.021*[#  10]
    |psi|^2 = 0.999
==== e(   9) =    17.36594 eV ==== 
     psi = 0.333*[#   6]+0.333*[#   7]+0.333*[#   9]
    |psi|^2 = 1.000
==== e(  10) =    25.52143 eV ==== 
     psi = 0.289*[#  11]+0.289*[#  12]+0.289*[#  13]+0.043*[#   6]+0.043*[#   7]
          +0.043*[#   9]
    |psi|^2 = 0.996

 k =  -1.0000000000  0.4500000000  0.0000000000
==== e(   1) =   -85.85556 eV ==== 
     psi = 0.993*[#   1]+0.007*[#  10]
    |psi|^2 = 1.000
==== e(   2) =   -46.30905 eV ==== 
     psi = 0.333*[#   2]+0.333*[#   3]+0.333*[#   4]
    |psi|^2 = 1.000
==== e(   3) =   -46.28971 eV ==== 
     psi = 0.333*[#   2]+0.333*[#   3]+0.333*[#   4]
    |psi|^2 = 1.000
==== e(   4) =   -46.23887 eV ==== 
     psi = 0.333*[#   2]+0.333*[#   3]+0.333*[#   4]
    |psi|^2 = 1.000
==== e(   5) =    13.99272 eV ==== 
     psi = 0.431*[#   5]+0.431*[#   8]+0.043*[#  11]+0.043*[#  12]+0.043*[#  13]
          +0.003*[#  10]
    |psi|^2 = 0.996
==== e(   6) =    14.52747 eV ==== 
     psi = 0.295*[#   6]+0.295*[#   7]+0.295*[#   9]+0.037*[#  11]+0.037*[#  12]
          +0.037*[#  13]
    |psi|^2 = 0.997
==== e(   7) =    14.98590 eV ==== 
     psi = 0.286*[#   6]+0.286*[#   7]+0.286*[#   9]+0.046*[#  11]+0.046*[#  12]
          +0.046*[#  13]
    |psi|^2 = 0.998
==== e(   8) =    16.49448 eV ==== 
     psi = 0.489*[#   5]+0.489*[#   8]+0.019*[#  10]
    |psi|^2 = 0.999
==== e(   9) =    17.36592 eV ==== 
     psi = 0.333*[#   6]+0.333*[#   7]+0.333*[#   9]
    |psi|^2 = 1.000
==== e(  10) =    24.78342 eV ==== 
     psi = 0.285*[#  11]+0.285*[#  12]+0.285*[#  13]+0.047*[#   6]+0.047*[#   7]
          +0.047*[#   9]
    |psi|^2 = 0.997

 k =  -1.0000000000  0.4000000000  0.0000000000
==== e(   1) =   -85.85556 eV ==== 
     psi = 0.993*[#   1]+0.007*[#  10]
    |psi|^2 = 1.000
==== e(   2) =   -46.31847 eV ==== 
     psi = 0.332*[#   2]+0.332*[#   3]+0.332*[#   4]
    |psi|^2 = 1.000
==== e(   3) =   -46.28028 eV ==== 
     psi = 0.333*[#   2]+0.333*[#   3]+0.333*[#   4]
    |psi|^2 = 1.000
==== e(   4) =   -46.23877 eV ==== 
     psi = 0.333*[#   2]+0.333*[#   3]+0.333*[#   4]
    |psi|^2 = 1.000
==== e(   5) =    13.91073 eV ==== 
     psi = 0.432*[#   5]+0.432*[#   8]+0.040*[#  11]+0.040*[#  12]+0.040*[#  13]
          +0.012*[#  10]
    |psi|^2 = 0.995
==== e(   6) =    14.33341 eV ==== 
     psi = 0.300*[#   6]+0.300*[#   7]+0.300*[#   9]+0.032*[#  11]+0.032*[#  12]
          +0.032*[#  13]
    |psi|^2 = 0.996
==== e(   7) =    15.24912 eV ==== 
     psi = 0.283*[#   6]+0.283*[#   7]+0.283*[#   9]+0.049*[#  11]+0.049*[#  12]
          +0.049*[#  13]
    |psi|^2 = 0.999
==== e(   8) =    16.56904 eV ==== 
     psi = 0.490*[#   5]+0.490*[#   8]+0.015*[#  10]+0.001*[#  11]+0.001*[#  12]
          +0.001*[#  13]
    |psi|^2 = 0.999
==== e(   9) =    17.36585 eV ==== 
     psi = 0.333*[#   6]+0.333*[#   7]+0.333*[#   9]
    |psi|^2 = 1.000
==== e(  10) =    24.07142 eV ==== 
     psi = 0.282*[#  11]+0.282*[#  12]+0.282*[#  13]+0.050*[#   6]+0.050*[#   7]
          +0.050*[#   9]
    |psi|^2 = 0.998

 k =  -1.0000000000  0.3500000000  0.0000000000
==== e(   1) =   -85.85556 eV ==== 
     psi = 0.993*[#   1]+0.007*[#  10]
    |psi|^2 = 1.000
==== e(   2) =   -46.32742 eV ==== 
     psi = 0.332*[#   2]+0.332*[#   3]+0.332*[#   4]+0.001*[#  11]+0.001*[#  12]
          +0.001*[#  13]
    |psi|^2 = 1.000
==== e(   3) =   -46.27130 eV ==== 
     psi = 0.333*[#   2]+0.333*[#   3]+0.333*[#   4]
    |psi|^2 = 1.000
==== e(   4) =   -46.23861 eV ==== 
     psi = 0.333*[#   2]+0.333*[#   3]+0.333*[#   4]
    |psi|^2 = 1.000
==== e(   5) =    13.79224 eV ==== 
     psi = 0.432*[#   5]+0.432*[#   8]+0.035*[#  11]+0.035*[#  12]+0.035*[#  13]
          +0.025*[#  10]
    |psi|^2 = 0.994
==== e(   6) =    14.16306 eV ==== 
     psi = 0.305*[#   6]+0.305*[#   7]+0.305*[#   9]+0.027*[#  11]+0.027*[#  12]
          +0.027*[#  13]
    |psi|^2 = 0.995
==== e(   7) =    15.53336 eV ==== 
     psi = 0.281*[#   6]+0.281*[#   7]+0.281*[#   9]+0.051*[#  11]+0.051*[#  12]
          +0.051*[#  13]
    |psi|^2 = 0.999
==== e(   8) =    16.67583 eV ==== 
     psi = 0.492*[#   5]+0.492*[#   8]+0.011*[#  10]+0.002*[#  11]+0.002*[#  12]
          +0.002*[#  13]
    |psi|^2 = 0.999
==== e(   9) =    17.36575 eV ==== 
     psi = 0.333*[#   6]+0.333*[#   7]+0.333*[#   9]
    |psi|^2 = 1.000
==== e(  10) =    23.38824 eV ==== 
     psi = 0.280*[#  11]+0.280*[#  12]+0.280*[#  13]+0.052*[#   6]+0.052*[#   7]
          +0.052*[#   9]
    |psi|^2 = 0.998

 k =  -1.0000000000  0.3000000000  0.0000000000
==== e(   1) =   -85.85557 eV ==== 
     psi = 0.993*[#   1]+0.007*[#  10]
    |psi|^2 = 1.000
==== e(   2) =   -46.33568 eV ==== 
     psi = 0.332*[#   2]+0.332*[#   3]+0.332*[#   4]+0.001*[#  11]+0.001*[#  12]
          +0.001*[#  13]
    |psi|^2 = 1.000
==== e(   3) =   -46.26303 eV ==== 
     psi = 0.333*[#   2]+0.333*[#   3]+0.333*[#   4]
    |psi|^2 = 1.000
==== e(   4) =   -46.23842 eV ==== 
     psi = 0.333*[#   2]+0.333*[#   3]+0.333*[#   4]
    |psi|^2 = 1.000
==== e(   5) =    13.65550 eV ==== 
     psi = 0.433*[#   5]+0.433*[#   8]+0.040*[#  10]+0.029*[#  11]+0.029*[#  12]
          +0.029*[#  13]
    |psi|^2 = 0.993
==== e(   6) =    14.01617 eV ==== 
     psi = 0.310*[#   6]+0.310*[#   7]+0.310*[#   9]+0.021*[#  11]+0.021*[#  12]
          +0.021*[#  13]
    |psi|^2 = 0.994
==== e(   7) =    15.83607 eV ==== 
     psi = 0.281*[#   6]+0.281*[#   7]+0.281*[#   9]+0.052*[#  11]+0.052*[#  12]
          +0.052*[#  13]
    |psi|^2 = 0.999
==== e(   8) =    16.79743 eV ==== 
     psi = 0.493*[#   5]+0.493*[#   8]+0.006*[#  10]+0.002*[#  11]+0.002*[#  12]
          +0.002*[#  13]
    |psi|^2 = 0.999
==== e(   9) =    17.36556 eV ==== 
     psi = 0.333*[#   6]+0.333*[#   7]+0.333*[#   9]
    |psi|^2 = 1.000
==== e(  10) =    22.73753 eV ==== 
     psi = 0.279*[#  11]+0.279*[#  12]+0.279*[#  13]+0.052*[#   6]+0.052*[#   7]
          +0.052*[#   9]+0.001*[#   2]+0.001*[#   3]+0.001*[#   4]
    |psi|^2 = 0.998

 k =  -1.0000000000  0.2500000000  0.0000000000
==== e(   1) =   -85.85558 eV ==== 
     psi = 0.993*[#   1]+0.007*[#  10]
    |psi|^2 = 1.000
==== e(   2) =   -46.34304 eV ==== 
     psi = 0.332*[#   2]+0.332*[#   3]+0.332*[#   4]+0.002*[#  11]+0.002*[#  12]
          +0.002*[#  13]
    |psi|^2 = 1.000
==== e(   3) =   -46.25564 eV ==== 
     psi = 0.333*[#   2]+0.333*[#   3]+0.333*[#   4]
    |psi|^2 = 1.000
==== e(   4) =   -46.23820 eV ==== 
     psi = 0.333*[#   2]+0.333*[#   3]+0.333*[#   4]
    |psi|^2 = 1.000
==== e(   5) =    13.51668 eV ==== 
     psi = 0.434*[#   5]+0.434*[#   8]+0.056*[#  10]+0.022*[#  11]+0.022*[#  12]
          +0.022*[#  13]
    |psi|^2 = 0.991
==== e(   6) =    13.89248 eV ==== 
     psi = 0.315*[#   6]+0.315*[#   7]+0.315*[#   9]+0.016*[#  11]+0.016*[#  12]
          +0.016*[#  13]
    |psi|^2 = 0.992
==== e(   7) =    16.15291 eV ==== 
     psi = 0.283*[#   6]+0.283*[#   7]+0.283*[#   9]+0.050*[#  11]+0.050*[#  12]
          +0.050*[#  13]
    |psi|^2 = 0.999
==== e(   8) =    16.91908 eV ==== 
     psi = 0.495*[#   5]+0.495*[#   8]+0.003*[#  10]+0.002*[#  11]+0.002*[#  12]
          +0.002*[#  13]
    |psi|^2 = 1.000
==== e(   9) =    17.36540 eV ==== 
     psi = 0.333*[#   6]+0.333*[#   7]+0.333*[#   9]
    |psi|^2 = 1.000
==== e(  10) =    22.12465 eV ==== 
     psi = 0.281*[#  11]+0.281*[#  12]+0.281*[#  13]+0.051*[#   6]+0.051*[#   7]
          +0.051*[#   9]+0.001*[#   2]+0.001*[#   3]+0.001*[#   4]
    |psi|^2 = 0.999

 k =  -1.0000000000  0.2000000000  0.0000000000
==== e(   1) =   -85.85558 eV ==== 
     psi = 0.993*[#   1]+0.007*[#  10]
    |psi|^2 = 1.000
==== e(   2) =   -46.34932 eV ==== 
     psi = 0.331*[#   2]+0.331*[#   3]+0.331*[#   4]+0.002*[#  11]+0.002*[#  12]
          +0.002*[#  13]
    |psi|^2 = 1.000
==== e(   3) =   -46.24933 eV ==== 
     psi = 0.333*[#   2]+0.333*[#   3]+0.333*[#   4]
    |psi|^2 = 1.000
==== e(   4) =   -46.23798 eV ==== 
     psi = 0.333*[#   2]+0.333*[#   3]+0.333*[#   4]
    |psi|^2 = 1.000
==== e(   5) =    13.38845 eV ==== 
     psi = 0.436*[#   5]+0.436*[#   8]+0.071*[#  10]+0.016*[#  11]+0.016*[#  12]
          +0.016*[#  13]
    |psi|^2 = 0.989
==== e(   6) =    13.79187 eV ==== 
     psi = 0.319*[#   6]+0.319*[#   7]+0.319*[#   9]+0.011*[#  11]+0.011*[#  12]
          +0.011*[#  13]
    |psi|^2 = 0.991
==== e(   7) =    16.47623 eV ==== 
     psi = 0.288*[#   6]+0.288*[#   7]+0.288*[#   9]+0.045*[#  11]+0.045*[#  12]
          +0.045*[#  13]
    |psi|^2 = 1.000
==== e(   8) =    17.02963 eV ==== 
     psi = 0.497*[#   5]+0.497*[#   8]+0.001*[#  10]+0.002*[#  11]+0.002*[#  12]
          +0.002*[#  13]
    |psi|^2 = 1.000
==== e(   9) =    17.36524 eV ==== 
     psi = 0.333*[#   6]+0.333*[#   7]+0.333*[#   9]
    |psi|^2 = 1.000
==== e(  10) =    21.55800 eV ==== 
     psi = 0.286*[#  11]+0.286*[#  12]+0.286*[#  13]+0.046*[#   6]+0.046*[#   7]
          +0.046*[#   9]+0.002*[#   2]+0.002*[#   3]+0.002*[#   4]
    |psi|^2 = 0.999

 k =  -1.0000000000  0.1500000000  0.0000000000
==== e(   1) =   -85.85559 eV ==== 
     psi = 0.993*[#   1]+0.007*[#  10]
    |psi|^2 = 1.000
==== e(   2) =   -46.35438 eV ==== 
     psi = 0.331*[#   2]+0.331*[#   3]+0.331*[#   4]+0.002*[#  11]+0.002*[#  12]
          +0.002*[#  13]
    |psi|^2 = 1.000
==== e(   3) =   -46.24426 eV ==== 
     psi = 0.333*[#   2]+0.333*[#   3]+0.333*[#   4]
    |psi|^2 = 1.000
==== e(   4) =   -46.23779 eV ==== 
     psi = 0.333*[#   2]+0.333*[#   3]+0.333*[#   4]
    |psi|^2 = 1.000
==== e(   5) =    13.28012 eV ==== 
     psi = 0.437*[#   5]+0.437*[#   8]+0.084*[#  10]+0.010*[#  11]+0.010*[#  12]
          +0.010*[#  13]
    |psi|^2 = 0.987
==== e(   6) =    13.71392 eV ==== 
     psi = 0.323*[#   6]+0.323*[#   7]+0.323*[#   9]+0.007*[#  11]+0.007*[#  12]
          +0.007*[#  13]
    |psi|^2 = 0.989
==== e(   7) =    16.79234 eV ==== 
     psi = 0.297*[#   6]+0.297*[#   7]+0.297*[#   9]+0.036*[#  11]+0.036*[#  12]
          +0.036*[#  13]
    |psi|^2 = 1.000
==== e(   8) =    17.12157 eV ==== 
     psi = 0.498*[#   5]+0.498*[#   8]+0.001*[#  11]+0.001*[#  12]+0.001*[#  13]
          
    |psi|^2 = 1.000
==== e(   9) =    17.36510 eV ==== 
     psi = 0.333*[#   6]+0.333*[#   7]+0.333*[#   9]
    |psi|^2 = 1.000
==== e(  10) =    21.05197 eV ==== 
     psi = 0.295*[#  11]+0.295*[#  12]+0.295*[#  13]+0.036*[#   6]+0.036*[#   7]
          +0.036*[#   9]+0.002*[#   2]+0.002*[#   3]+0.002*[#   4]
    |psi|^2 = 0.999

 k =  -1.0000000000  0.1000000000  0.0000000000
==== e(   1) =   -85.85560 eV ==== 
     psi = 0.993*[#   1]+0.006*[#  10]
    |psi|^2 = 1.000
==== e(   2) =   -46.35808 eV ==== 
     psi = 0.331*[#   2]+0.331*[#   3]+0.331*[#   4]+0.002*[#  11]+0.002*[#  12]
          +0.002*[#  13]
    |psi|^2 = 1.000
==== e(   3) =   -46.24054 eV ==== 
     psi = 0.333*[#   2]+0.333*[#   3]+0.333*[#   4]
    |psi|^2 = 1.000
==== e(   4) =   -46.23764 eV ==== 
     psi = 0.333*[#   2]+0.333*[#   3]+0.333*[#   4]
    |psi|^2 = 1.000
==== e(   5) =    13.19840 eV ==== 
     psi = 0.439*[#   5]+0.439*[#   8]+0.095*[#  10]+0.005*[#  11]+0.005*[#  12]
          +0.005*[#  13]
    |psi|^2 = 0.986
==== e(   6) =    13.65844 eV ==== 
     psi = 0.326*[#   6]+0.326*[#   7]+0.326*[#   9]+0.003*[#  11]+0.003*[#  12]
          +0.003*[#  13]
    |psi|^2 = 0.988
==== e(   7) =    17.07623 eV ==== 
     psi = 0.311*[#   6]+0.311*[#   7]+0.311*[#   9]+0.022*[#  11]+0.022*[#  12]
          +0.022*[#  13]
    |psi|^2 = 1.000
==== e(   8) =    17.19006 eV ==== 
     psi = 0.499*[#   5]+0.499*[#   8]
    |psi|^2 = 1.000
==== e(   9) =    17.36500 eV ==== 
     psi = 0.333*[#   6]+0.333*[#   7]+0.333*[#   9]
    |psi|^2 = 1.000
==== e(  10) =    20.63202 eV ==== 
     psi = 0.308*[#  11]+0.308*[#  12]+0.308*[#  13]+0.023*[#   6]+0.023*[#   7]
          +0.023*[#   9]+0.002*[#   2]+0.002*[#   3]+0.002*[#   4]
    |psi|^2 = 0.999

 k =  -1.0000000000  0.0500000000  0.0000000000
==== e(   1) =   -85.85560 eV ==== 
     psi = 0.993*[#   1]+0.006*[#  10]
    |psi|^2 = 1.000
==== e(   2) =   -46.36034 eV ==== 
     psi = 0.331*[#   2]+0.331*[#   3]+0.331*[#   4]+0.002*[#  11]+0.002*[#  12]
          +0.002*[#  13]
    |psi|^2 = 1.000
==== e(   3) =   -46.23827 eV ==== 
     psi = 0.333*[#   2]+0.333*[#   3]+0.333*[#   4]
    |psi|^2 = 1.000
==== e(   4) =   -46.23753 eV ==== 
     psi = 0.333*[#   2]+0.333*[#   3]+0.333*[#   4]
    |psi|^2 = 1.000
==== e(   5) =    13.14770 eV ==== 
     psi = 0.440*[#   5]+0.440*[#   8]+0.102*[#  10]+0.001*[#  11]+0.001*[#  12]
          +0.001*[#  13]
    |psi|^2 = 0.985
==== e(   6) =    13.62524 eV ==== 
     psi = 0.328*[#   6]+0.328*[#   7]+0.328*[#   9]
    |psi|^2 = 0.986
==== e(   7) =    17.23220 eV ==== 
     psi = 0.500*[#   5]+0.500*[#   8]
    |psi|^2 = 1.000
==== e(   8) =    17.28543 eV ==== 
     psi = 0.326*[#   6]+0.326*[#   7]+0.326*[#   9]+0.007*[#  11]+0.007*[#  12]
          +0.007*[#  13]
    |psi|^2 = 1.000
==== e(   9) =    17.36489 eV ==== 
     psi = 0.333*[#   6]+0.333*[#   7]+0.333*[#   9]
    |psi|^2 = 1.000
==== e(  10) =    20.34103 eV ==== 
     psi = 0.323*[#  11]+0.323*[#  12]+0.323*[#  13]+0.007*[#   6]+0.007*[#   7]
          +0.007*[#   9]+0.002*[#   2]+0.002*[#   3]+0.002*[#   4]
    |psi|^2 = 0.999

 k =  -1.0000000000  0.0000000000  0.0000000000
==== e(   1) =   -85.85560 eV ==== 
     psi = 0.993*[#   1]+0.006*[#  10]
    |psi|^2 = 1.000
==== e(   2) =   -46.36110 eV ==== 
     psi = 0.331*[#   2]+0.331*[#   3]+0.331*[#   4]+0.002*[#  11]+0.002*[#  12]
          +0.002*[#  13]
    |psi|^2 = 1.000
==== e(   3) =   -46.23751 eV ==== 
     psi = 0.333*[#   2]+0.333*[#   3]+0.333*[#   4]
    |psi|^2 = 1.000
==== e(   4) =   -46.23751 eV ==== 
     psi = 0.333*[#   2]+0.333*[#   3]+0.333*[#   4]
    |psi|^2 = 1.000
==== e(   5) =    13.13050 eV ==== 
     psi = 0.440*[#   5]+0.440*[#   8]+0.104*[#  10]
    |psi|^2 = 0.984
==== e(   6) =    13.61411 eV ==== 
     psi = 0.329*[#   6]+0.329*[#   7]+0.329*[#   9]
    |psi|^2 = 0.986
==== e(   7) =    17.24636 eV ==== 
     psi = 0.500*[#   5]+0.500*[#   8]
    |psi|^2 = 1.000
==== e(   8) =    17.36484 eV ==== 
     psi = 0.333*[#   6]+0.333*[#   7]+0.333*[#   9]
    |psi|^2 = 1.000
==== e(   9) =    17.36484 eV ==== 
     psi = 0.333*[#   6]+0.333*[#   7]+0.333*[#   9]
    |psi|^2 = 1.000
==== e(  10) =    20.23426 eV ==== 
     psi = 0.331*[#  11]+0.331*[#  12]+0.331*[#  13]+0.002*[#   2]+0.002*[#   3]
          +0.002*[#   4]
    |psi|^2 = 0.999

 k =  -0.9000000000  0.0000000000  0.0000000000
==== e(   1) =   -85.85668 eV ==== 
     psi = 0.989*[#   1]+0.006*[#  10]+0.001*[#  11]+0.001*[#  12]+0.001*[#  13]
          
    |psi|^2 = 1.000
==== e(   2) =   -46.35625 eV ==== 
     psi = 0.331*[#   2]+0.331*[#   3]+0.331*[#   4]+0.002*[#  11]+0.002*[#  12]
          +0.002*[#  13]
    |psi|^2 = 1.000
==== e(   3) =   -46.23552 eV ==== 
     psi = 0.333*[#   2]+0.333*[#   3]+0.333*[#   4]
    |psi|^2 = 1.000
==== e(   4) =   -46.23552 eV ==== 
     psi = 0.333*[#   2]+0.333*[#   3]+0.333*[#   4]
    |psi|^2 = 1.000
==== e(   5) =    13.13904 eV ==== 
     psi = 0.427*[#   5]+0.427*[#   8]+0.110*[#  10]+0.007*[#  11]+0.007*[#  12]
          +0.007*[#  13]
    |psi|^2 = 0.985
==== e(   6) =    13.65423 eV ==== 
     psi = 0.329*[#   6]+0.329*[#   7]+0.329*[#   9]
    |psi|^2 = 0.986
==== e(   7) =    17.22840 eV ==== 
     psi = 0.500*[#   5]+0.500*[#   8]
    |psi|^2 = 1.000
==== e(   8) =    17.29945 eV ==== 
     psi = 0.333*[#   6]+0.333*[#   7]+0.333*[#   9]
    |psi|^2 = 1.000
==== e(   9) =    17.29945 eV ==== 
     psi = 0.333*[#   6]+0.333*[#   7]+0.333*[#   9]
    |psi|^2 = 1.000
==== e(  10) =    19.56528 eV ==== 
     psi = 0.293*[#  11]+0.293*[#  12]+0.293*[#  13]+0.055*[#  10]+0.028*[#   5]
          +0.028*[#   8]+0.002*[#   2]+0.002*[#   3]+0.002*[#   4]+0.002*[#   1]
          
    |psi|^2 = 0.999

 k =  -0.8000000000  0.0000000000  0.0000000000
==== e(   1) =   -85.85982 eV ==== 
     psi = 0.977*[#   1]+0.006*[#  10]+0.005*[#  11]+0.005*[#  12]+0.005*[#  13]
          
    |psi|^2 = 1.000
==== e(   2) =   -46.34217 eV ==== 
     psi = 0.331*[#   2]+0.331*[#   3]+0.331*[#   4]+0.002*[#  11]+0.002*[#  12]
          +0.002*[#  13]
    |psi|^2 = 1.000
==== e(   3) =   -46.22976 eV ==== 
     psi = 0.333*[#   2]+0.333*[#   3]+0.333*[#   4]
    |psi|^2 = 1.000
==== e(   4) =   -46.22976 eV ==== 
     psi = 0.333*[#   2]+0.333*[#   3]+0.333*[#   4]
    |psi|^2 = 1.000
==== e(   5) =    13.12944 eV ==== 
     psi = 0.379*[#   5]+0.379*[#   8]+0.132*[#  10]+0.032*[#  11]+0.032*[#  12]
          +0.032*[#  13]
    |psi|^2 = 0.987
==== e(   6) =    13.77138 eV ==== 
     psi = 0.329*[#   6]+0.329*[#   7]+0.329*[#   9]
    |psi|^2 = 0.987
==== e(   7) =    17.11661 eV ==== 
     psi = 0.331*[#   6]+0.331*[#   7]+0.331*[#   9]+0.002*[#  11]+0.002*[#  12]
          +0.002*[#  13]
    |psi|^2 = 1.000
==== e(   8) =    17.11661 eV ==== 
     psi = 0.331*[#   6]+0.331*[#   7]+0.331*[#   9]+0.002*[#  11]+0.002*[#  12]
          +0.002*[#  13]
    |psi|^2 = 1.000
==== e(   9) =    17.17639 eV ==== 
     psi = 0.500*[#   5]+0.500*[#   8]
    |psi|^2 = 1.000
==== e(  10) =    18.21361 eV ==== 
     psi = 0.230*[#  11]+0.230*[#  12]+0.230*[#  13]+0.109*[#  10]+0.095*[#   5]
          +0.095*[#   8]+0.005*[#   1]+0.002*[#   2]+0.002*[#   3]+0.002*[#   4]
          
    |psi|^2 = 0.999

 k =  -0.7000000000  0.0000000000  0.0000000000
==== e(   1) =   -85.86470 eV ==== 
     psi = 0.962*[#   1]+0.011*[#  11]+0.011*[#  12]+0.011*[#  13]+0.005*[#  10]
          
    |psi|^2 = 1.000
==== e(   2) =   -46.32008 eV ==== 
     psi = 0.331*[#   2]+0.331*[#   3]+0.331*[#   4]+0.002*[#  10]+0.001*[#  11]
          +0.001*[#  12]+0.001*[#  13]
    |psi|^2 = 1.000
==== e(   3) =   -46.22078 eV ==== 
     psi = 0.332*[#   2]+0.332*[#   3]+0.332*[#   4]
    |psi|^2 = 1.000
==== e(   4) =   -46.22078 eV ==== 
     psi = 0.332*[#   2]+0.332*[#   3]+0.332*[#   4]
    |psi|^2 = 1.000
==== e(   5) =    12.97646 eV ==== 
     psi = 0.278*[#   5]+0.278*[#   8]+0.188*[#  10]+0.080*[#  11]+0.080*[#  12]
          +0.080*[#  13]+0.005*[#   1]
    |psi|^2 = 0.991
==== e(   6) =    13.95652 eV ==== 
     psi = 0.329*[#   6]+0.329*[#   7]+0.329*[#   9]
    |psi|^2 = 0.988
==== e(   7) =    16.85074 eV ==== 
     psi = 0.330*[#   6]+0.330*[#   7]+0.330*[#   9]+0.004*[#  11]+0.004*[#  12]
          +0.004*[#  13]
    |psi|^2 = 1.000
==== e(   8) =    16.85074 eV ==== 
     psi = 0.330*[#   6]+0.330*[#   7]+0.330*[#   9]+0.004*[#  11]+0.004*[#  12]
          +0.004*[#  13]
    |psi|^2 = 1.000
==== e(   9) =    16.94071 eV ==== 
     psi = 0.207*[#   5]+0.207*[#   8]+0.154*[#  11]+0.154*[#  12]+0.154*[#  13]
          +0.109*[#  10]+0.008*[#   1]+0.001*[#   2]+0.001*[#   3]+0.001*[#   4]
          
    |psi|^2 = 0.997
==== e(  10) =    17.09593 eV ==== 
     psi = 0.500*[#   5]+0.500*[#   8]
    |psi|^2 = 1.000

 k =  -0.6000000000  0.0000000000  0.0000000000
==== e(   1) =   -85.87087 eV ==== 
     psi = 0.946*[#   1]+0.017*[#  11]+0.017*[#  12]+0.017*[#  13]+0.004*[#  10]
          
    |psi|^2 = 1.000
==== e(   2) =   -46.29200 eV ==== 
     psi = 0.331*[#   2]+0.331*[#   3]+0.331*[#   4]+0.003*[#  10]
    |psi|^2 = 1.000
==== e(   3) =   -46.20946 eV ==== 
     psi = 0.332*[#   2]+0.332*[#   3]+0.332*[#   4]+0.001*[#  11]+0.001*[#  12]
          +0.001*[#  13]
    |psi|^2 = 1.000
==== e(   4) =   -46.20946 eV ==== 
     psi = 0.332*[#   2]+0.332*[#   3]+0.332*[#   4]+0.001*[#  11]+0.001*[#  12]
          +0.001*[#  13]
    |psi|^2 = 1.000
==== e(   5) =    12.48064 eV ==== 
     psi = 0.287*[#  10]+0.139*[#   5]+0.139*[#   8]+0.138*[#  11]+0.138*[#  12]
          +0.138*[#  13]+0.014*[#   1]+0.001*[#   2]+0.001*[#   3]+0.001*[#   4]
          
    |psi|^2 = 0.996
==== e(   6) =    14.19449 eV ==== 
     psi = 0.330*[#   6]+0.330*[#   7]+0.330*[#   9]
    |psi|^2 = 0.989
==== e(   7) =    16.16044 eV ==== 
     psi = 0.354*[#   5]+0.354*[#   8]+0.071*[#  11]+0.071*[#  12]+0.071*[#  13]
          +0.067*[#  10]+0.006*[#   1]
    |psi|^2 = 0.994
==== e(   8) =    16.54341 eV ==== 
     psi = 0.329*[#   6]+0.329*[#   7]+0.329*[#   9]+0.004*[#  11]+0.004*[#  12]
          +0.004*[#  13]
    |psi|^2 = 1.000
==== e(   9) =    16.54341 eV ==== 
     psi = 0.329*[#   6]+0.329*[#   7]+0.329*[#   9]+0.004*[#  11]+0.004*[#  12]
          +0.004*[#  13]
    |psi|^2 = 1.000
==== e(  10) =    16.99532 eV ==== 
     psi = 0.500*[#   5]+0.500*[#   8]
    |psi|^2 = 1.000

 k =  -0.5000000000  0.0000000000  0.0000000000
==== e(   1) =   -85.87770 eV ==== 
     psi = 0.935*[#   1]+0.021*[#  11]+0.021*[#  12]+0.021*[#  13]+0.002*[#  10]
          
    |psi|^2 = 1.000
==== e(   2) =   -46.26055 eV ==== 
     psi = 0.332*[#   2]+0.332*[#   3]+0.332*[#   4]+0.004*[#  10]
    |psi|^2 = 1.000
==== e(   3) =   -46.19692 eV ==== 
     psi = 0.332*[#   2]+0.332*[#   3]+0.332*[#   4]+0.002*[#  11]+0.002*[#  12]
          +0.002*[#  13]
    |psi|^2 = 1.000
==== e(   4) =   -46.19692 eV ==== 
     psi = 0.332*[#   2]+0.332*[#   3]+0.332*[#   4]+0.002*[#  11]+0.002*[#  12]
          +0.002*[#  13]
    |psi|^2 = 1.000
==== e(   5) =    11.63976 eV ==== 
     psi = 0.395*[#  10]+0.161*[#  11]+0.161*[#  12]+0.161*[#  13]+0.048*[#   5]
          +0.048*[#   8]+0.024*[#   1]+0.001*[#   2]+0.001*[#   3]+0.001*[#   4]
          
    |psi|^2 = 0.999
==== e(   6) =    14.46474 eV ==== 
     psi = 0.330*[#   6]+0.330*[#   7]+0.330*[#   9]
    |psi|^2 = 0.990
==== e(   7) =    15.93316 eV ==== 
     psi = 0.448*[#   5]+0.448*[#   8]+0.029*[#  10]+0.022*[#  11]+0.022*[#  12]
          +0.022*[#  13]+0.003*[#   1]
    |psi|^2 = 0.994
==== e(   8) =    16.23287 eV ==== 
     psi = 0.329*[#   6]+0.329*[#   7]+0.329*[#   9]+0.005*[#  11]+0.005*[#  12]
          +0.005*[#  13]
    |psi|^2 = 0.999
==== e(   9) =    16.23287 eV ==== 
     psi = 0.329*[#   6]+0.329*[#   7]+0.329*[#   9]+0.005*[#  11]+0.005*[#  12]
          +0.005*[#  13]
    |psi|^2 = 0.999
==== e(  10) =    16.88488 eV ==== 
     psi = 0.500*[#   5]+0.500*[#   8]
    |psi|^2 = 1.000

 k =  -0.4000000000  0.0000000000  0.0000000000
==== e(   1) =   -85.88453 eV ==== 
     psi = 0.931*[#   1]+0.023*[#  11]+0.023*[#  12]+0.023*[#  13]
    |psi|^2 = 1.000
==== e(   2) =   -46.22873 eV ==== 
     psi = 0.332*[#   2]+0.332*[#   3]+0.332*[#   4]+0.005*[#  10]
    |psi|^2 = 1.000
==== e(   3) =   -46.18437 eV ==== 
     psi = 0.331*[#   2]+0.331*[#   3]+0.331*[#   4]+0.002*[#  11]+0.002*[#  12]
          +0.002*[#  13]
    |psi|^2 = 1.000
==== e(   4) =   -46.18437 eV ==== 
     psi = 0.331*[#   2]+0.331*[#   3]+0.331*[#   4]+0.002*[#  11]+0.002*[#  12]
          +0.002*[#  13]
    |psi|^2 = 1.000
==== e(   5) =    10.70897 eV ==== 
     psi = 0.505*[#  10]+0.145*[#  11]+0.145*[#  12]+0.145*[#  13]+0.029*[#   1]
          +0.014*[#   5]+0.014*[#   8]
    |psi|^2 = 1.000
==== e(   6) =    14.74215 eV ==== 
     psi = 0.331*[#   6]+0.331*[#   7]+0.331*[#   9]
    |psi|^2 = 0.992
==== e(   7) =    15.94886 eV ==== 
     psi = 0.329*[#   6]+0.329*[#   7]+0.329*[#   9]+0.004*[#  11]+0.004*[#  12]
          +0.004*[#  13]
    |psi|^2 = 0.999
==== e(   8) =    15.94886 eV ==== 
     psi = 0.329*[#   6]+0.329*[#   7]+0.329*[#   9]+0.004*[#  11]+0.004*[#  12]
          +0.004*[#  13]
    |psi|^2 = 0.999
==== e(   9) =    16.01222 eV ==== 
     psi = 0.484*[#   5]+0.484*[#   8]+0.011*[#  10]+0.005*[#  11]+0.005*[#  12]
          +0.005*[#  13]
    |psi|^2 = 0.996
==== e(  10) =    16.77556 eV ==== 
     psi = 0.500*[#   5]+0.500*[#   8]
    |psi|^2 = 1.000

 k =  -0.3000000000  0.0000000000  0.0000000000
==== e(   1) =   -85.89070 eV ==== 
     psi = 0.936*[#   1]+0.021*[#  11]+0.021*[#  12]+0.021*[#  13]
    |psi|^2 = 1.000
==== e(   2) =   -46.19973 eV ==== 
     psi = 0.331*[#   2]+0.331*[#   3]+0.331*[#   4]+0.005*[#  10]
    |psi|^2 = 1.000
==== e(   3) =   -46.17303 eV ==== 
     psi = 0.331*[#   2]+0.331*[#   3]+0.331*[#   4]+0.003*[#  11]+0.003*[#  12]
          +0.003*[#  13]
    |psi|^2 = 1.000
==== e(   4) =   -46.17303 eV ==== 
     psi = 0.331*[#   2]+0.331*[#   3]+0.331*[#   4]+0.003*[#  11]+0.003*[#  12]
          +0.003*[#  13]
    |psi|^2 = 1.000
==== e(   5) =     9.88466 eV ==== 
     psi = 0.632*[#  10]+0.110*[#  11]+0.110*[#  12]+0.110*[#  13]+0.030*[#   1]
          +0.003*[#   5]+0.003*[#   8]
    |psi|^2 = 1.000
==== e(   6) =    14.99894 eV ==== 
     psi = 0.331*[#   6]+0.331*[#   7]+0.331*[#   9]
    |psi|^2 = 0.994
==== e(   7) =    15.71195 eV ==== 
     psi = 0.330*[#   6]+0.330*[#   7]+0.330*[#   9]+0.003*[#  11]+0.003*[#  12]
          +0.003*[#  13]
    |psi|^2 = 0.999
==== e(   8) =    15.71195 eV ==== 
     psi = 0.330*[#   6]+0.330*[#   7]+0.330*[#   9]+0.003*[#  11]+0.003*[#  12]
          +0.003*[#  13]
    |psi|^2 = 0.999
==== e(   9) =    16.19213 eV ==== 
     psi = 0.495*[#   5]+0.495*[#   8]+0.004*[#  10]
    |psi|^2 = 0.998
==== e(  10) =    16.67801 eV ==== 
     psi = 0.500*[#   5]+0.500*[#   8]
    |psi|^2 = 1.000

 k =  -0.2000000000  0.0000000000  0.0000000000
==== e(   1) =   -85.89560 eV ==== 
     psi = 0.950*[#   1]+0.014*[#  11]+0.014*[#  12]+0.014*[#  13]+0.007*[#  10]
          
    |psi|^2 = 1.000
==== e(   2) =   -46.17650 eV ==== 
     psi = 0.331*[#   2]+0.331*[#   3]+0.331*[#   4]+0.003*[#  10]+0.001*[#  11]
          +0.001*[#  12]+0.001*[#  13]
    |psi|^2 = 1.000
==== e(   3) =   -46.16404 eV ==== 
     psi = 0.330*[#   2]+0.330*[#   3]+0.330*[#   4]+0.003*[#  11]+0.003*[#  12]
          +0.003*[#  13]
    |psi|^2 = 1.000
==== e(   4) =   -46.16404 eV ==== 
     psi = 0.330*[#   2]+0.330*[#   3]+0.330*[#   4]+0.003*[#  11]+0.003*[#  12]
          +0.003*[#  13]
    |psi|^2 = 1.000
==== e(   5) =     9.25785 eV ==== 
     psi = 0.779*[#  10]+0.064*[#  11]+0.064*[#  12]+0.064*[#  13]+0.028*[#   1]
          
    |psi|^2 = 1.000
==== e(   6) =    15.20717 eV ==== 
     psi = 0.332*[#   6]+0.332*[#   7]+0.332*[#   9]
    |psi|^2 = 0.996
==== e(   7) =    15.53536 eV ==== 
     psi = 0.331*[#   6]+0.331*[#   7]+0.331*[#   9]+0.001*[#  11]+0.001*[#  12]
          +0.001*[#  13]
    |psi|^2 = 0.998
==== e(   8) =    15.53536 eV ==== 
     psi = 0.331*[#   6]+0.331*[#   7]+0.331*[#   9]+0.001*[#  11]+0.001*[#  12]
          +0.001*[#  13]
    |psi|^2 = 0.998
==== e(   9) =    16.36911 eV ==== 
     psi = 0.499*[#   5]+0.499*[#   8]
    |psi|^2 = 0.999
==== e(  10) =    16.60112 eV ==== 
     psi = 0.500*[#   5]+0.500*[#   8]
    |psi|^2 = 1.000

 k =  -0.1000000000  0.0000000000  0.0000000000
==== e(   1) =   -85.89875 eV ==== 
     psi = 0.968*[#   1]+0.018*[#  10]+0.005*[#  11]+0.005*[#  12]+0.005*[#  13]
          
    |psi|^2 = 1.000
==== e(   2) =   -46.16148 eV ==== 
     psi = 0.330*[#   2]+0.330*[#   3]+0.330*[#   4]+0.003*[#  11]+0.003*[#  12]
          +0.003*[#  13]+0.001*[#  10]
    |psi|^2 = 1.000
==== e(   3) =   -46.15827 eV ==== 
     psi = 0.330*[#   2]+0.330*[#   3]+0.330*[#   4]+0.004*[#  11]+0.004*[#  12]
          +0.004*[#  13]
    |psi|^2 = 1.000
==== e(   4) =   -46.15827 eV ==== 
     psi = 0.330*[#   2]+0.330*[#   3]+0.330*[#   4]+0.004*[#  11]+0.004*[#  12]
          +0.004*[#  13]
    |psi|^2 = 1.000
==== e(   5) =     8.86960 eV ==== 
     psi = 0.916*[#  10]+0.025*[#   1]+0.020*[#  11]+0.020*[#  12]+0.020*[#  13]
          
    |psi|^2 = 1.000
==== e(   6) =    15.34309 eV ==== 
     psi = 0.332*[#   6]+0.332*[#   7]+0.332*[#   9]
    |psi|^2 = 0.997
==== e(   7) =    15.42685 eV ==== 
     psi = 0.332*[#   6]+0.332*[#   7]+0.332*[#   9]
    |psi|^2 = 0.998
==== e(   8) =    15.42685 eV ==== 
[...]
          +0.007*[#  11]+0.007*[#  12]+0.007*[#  13]+0.001*[#  10]
    |psi|^2 = 0.996
==== e(   8) =    16.77098 eV ==== 
     psi = 0.332*[#   6]+0.332*[#   7]+0.332*[#   9]
    |psi|^2 = 0.997
==== e(   9) =    16.81169 eV ==== 
     psi = 0.498*[#   5]+0.498*[#   8]
    |psi|^2 = 0.997
==== e(  10) =    17.90310 eV ==== 
     psi = 0.272*[#   5]+0.272*[#   8]+0.139*[#   6]+0.139*[#   7]+0.139*[#   9]
          +0.011*[#  10]+0.009*[#  11]+0.009*[#  12]+0.009*[#  13]
    |psi|^2 = 0.999

 k =  -0.3750000000  0.3750000000  0.0000000000
==== e(   1) =   -84.92369 eV ==== 
     psi = 0.948*[#   1]+0.017*[#  11]+0.017*[#  12]+0.017*[#  13]
    |psi|^2 = 1.000
==== e(   2) =   -45.36012 eV ==== 
     psi = 0.332*[#   2]+0.332*[#   3]+0.332*[#   4]+0.003*[#  10]
    |psi|^2 = 1.000
==== e(   3) =   -45.28830 eV ==== 
     psi = 0.332*[#   2]+0.332*[#   3]+0.332*[#   4]
    |psi|^2 = 1.000
==== e(   4) =   -45.24966 eV ==== 
     psi = 0.330*[#   2]+0.330*[#   3]+0.330*[#   4]+0.003*[#  11]+0.003*[#  12]
          +0.003*[#  13]
    |psi|^2 = 1.000
==== e(   5) =    11.99363 eV ==== 
     psi = 0.394*[#  10]+0.169*[#  11]+0.169*[#  12]+0.169*[#  13]+0.022*[#   1]
          +0.020*[#   6]+0.020*[#   7]+0.020*[#   9]+0.006*[#   5]+0.006*[#   8]
          +0.002*[#   2]+0.002*[#   3]+0.002*[#   4]
    |psi|^2 = 1.000
==== e(   6) =    15.48317 eV ==== 
     psi = 0.311*[#   6]+0.311*[#   7]+0.311*[#   9]+0.020*[#  11]+0.020*[#  12]
          +0.020*[#  13]
    |psi|^2 = 0.996
==== e(   7) =    16.15396 eV ==== 
     psi = 0.254*[#   5]+0.254*[#   8]+0.154*[#   6]+0.154*[#   7]+0.154*[#   9]
          +0.008*[#  11]+0.008*[#  12]+0.008*[#  13]+0.002*[#  10]
    |psi|^2 = 0.995
==== e(   8) =    16.77206 eV ==== 
     psi = 0.497*[#   5]+0.497*[#   8]
    |psi|^2 = 0.997
==== e(   9) =    16.88857 eV ==== 
     psi = 0.332*[#   6]+0.332*[#   7]+0.332*[#   9]
    |psi|^2 = 0.997
==== e(  10) =    18.15675 eV ==== 
     psi = 0.235*[#   5]+0.235*[#   8]+0.154*[#   6]+0.154*[#   7]+0.154*[#   9]
          +0.019*[#  10]+0.015*[#  11]+0.015*[#  12]+0.015*[#  13]+0.001*[#   1]
          
    |psi|^2 = 1.000

 k =  -0.4125000000  0.4125000000  0.0000000000
==== e(   1) =   -84.92030 eV ==== 
     psi = 0.955*[#   1]+0.015*[#  11]+0.015*[#  12]+0.015*[#  13]+0.002*[#  10]
          
    |psi|^2 = 1.000
==== e(   2) =   -45.37343 eV ==== 
     psi = 0.331*[#   2]+0.331*[#   3]+0.331*[#   4]+0.003*[#  10]
    |psi|^2 = 1.000
==== e(   3) =   -45.29938 eV ==== 
     psi = 0.333*[#   2]+0.333*[#   3]+0.333*[#   4]
    |psi|^2 = 1.000
==== e(   4) =   -45.25366 eV ==== 
     psi = 0.330*[#   2]+0.330*[#   3]+0.330*[#   4]+0.003*[#  11]+0.003*[#  12]
          +0.003*[#  13]
    |psi|^2 = 1.000
==== e(   5) =    12.55405 eV ==== 
     psi = 0.346*[#  10]+0.172*[#  11]+0.172*[#  12]+0.172*[#  13]+0.032*[#   6]
          +0.032*[#   7]+0.032*[#   9]+0.018*[#   1]+0.010*[#   5]+0.010*[#   8]
          +0.002*[#   2]+0.002*[#   3]+0.002*[#   4]
    |psi|^2 = 0.999
==== e(   6) =    15.43276 eV ==== 
     psi = 0.307*[#   6]+0.307*[#   7]+0.307*[#   9]+0.025*[#  11]+0.025*[#  12]
          +0.025*[#  13]
    |psi|^2 = 0.996
==== e(   7) =    16.02446 eV ==== 
     psi = 0.281*[#   5]+0.281*[#   8]+0.134*[#   6]+0.134*[#   7]+0.134*[#   9]
          +0.009*[#  11]+0.009*[#  12]+0.009*[#  13]+0.003*[#  10]
    |psi|^2 = 0.994
==== e(   8) =    16.74822 eV ==== 
     psi = 0.496*[#   5]+0.496*[#   8]+0.001*[#  11]+0.001*[#  12]+0.001*[#  13]
          
    |psi|^2 = 0.997
==== e(   9) =    17.01069 eV ==== 
     psi = 0.332*[#   6]+0.332*[#   7]+0.332*[#   9]
    |psi|^2 = 0.997
==== e(  10) =    18.45691 eV ==== 
     psi = 0.204*[#   5]+0.204*[#   8]+0.162*[#   6]+0.162*[#   7]+0.162*[#   9]
          +0.032*[#  10]+0.024*[#  11]+0.024*[#  12]+0.024*[#  13]+0.002*[#   1]
          
    |psi|^2 = 1.000

 k =  -0.4500000000  0.4500000000  0.0000000000
==== e(   1) =   -84.91710 eV ==== 
     psi = 0.961*[#   1]+0.012*[#  11]+0.012*[#  12]+0.012*[#  13]+0.002*[#  10]
          
    |psi|^2 = 1.000
==== e(   2) =   -45.38409 eV ==== 
     psi = 0.331*[#   2]+0.331*[#   3]+0.331*[#   4]+0.002*[#  10]+0.001*[#  11]
          +0.001*[#  12]+0.001*[#  13]
    |psi|^2 = 1.000
==== e(   3) =   -45.31111 eV ==== 
     psi = 0.333*[#   2]+0.333*[#   3]+0.333*[#   4]
    |psi|^2 = 1.000
==== e(   4) =   -45.25804 eV ==== 
     psi = 0.331*[#   2]+0.331*[#   3]+0.331*[#   4]+0.003*[#  11]+0.003*[#  12]
          +0.003*[#  13]
    |psi|^2 = 1.000
==== e(   5) =    13.09798 eV ==== 
     psi = 0.297*[#  10]+0.169*[#  11]+0.169*[#  12]+0.169*[#  13]+0.049*[#   6]
          +0.049*[#   7]+0.049*[#   9]+0.014*[#   1]+0.014*[#   5]+0.014*[#   8]
          +0.002*[#   2]+0.002*[#   3]+0.002*[#   4]
    |psi|^2 = 0.999
==== e(   6) =    15.40600 eV ==== 
     psi = 0.302*[#   6]+0.302*[#   7]+0.302*[#   9]+0.030*[#  11]+0.030*[#  12]
          +0.030*[#  13]
    |psi|^2 = 0.997
==== e(   7) =    15.87444 eV ==== 
     psi = 0.303*[#   5]+0.303*[#   8]+0.116*[#   6]+0.116*[#   7]+0.116*[#   9]
          +0.011*[#  11]+0.011*[#  12]+0.011*[#  13]+0.004*[#  10]
    |psi|^2 = 0.993
==== e(   8) =    16.74272 eV ==== 
     psi = 0.496*[#   5]+0.496*[#   8]+0.002*[#  11]+0.002*[#  12]+0.002*[#  13]
          
    |psi|^2 = 0.997
==== e(   9) =    17.13541 eV ==== 
     psi = 0.333*[#   6]+0.333*[#   7]+0.333*[#   9]
    |psi|^2 = 0.998
==== e(  10) =    18.81457 eV ==== 
     psi = 0.175*[#   5]+0.175*[#   8]+0.162*[#   6]+0.162*[#   7]+0.162*[#   9]
          +0.050*[#  10]+0.037*[#  11]+0.037*[#  12]+0.037*[#  13]+0.002*[#   1]
          
    |psi|^2 = 1.000

 k =  -0.4875000000  0.4875000000  0.0000000000
==== e(   1) =   -84.91414 eV ==== 
     psi = 0.968*[#   1]+0.010*[#  11]+0.010*[#  12]+0.010*[#  13]+0.003*[#  10]
          
    |psi|^2 = 1.000
==== e(   2) =   -45.39172 eV ==== 
     psi = 0.331*[#   2]+0.331*[#   3]+0.331*[#   4]+0.002*[#  10]+0.001*[#  11]
          +0.001*[#  12]+0.001*[#  13]
    |psi|^2 = 1.000
==== e(   3) =   -45.32338 eV ==== 
     psi = 0.333*[#   2]+0.333*[#   3]+0.333*[#   4]
    |psi|^2 = 1.000
==== e(   4) =   -45.26277 eV ==== 
     psi = 0.331*[#   2]+0.331*[#   3]+0.331*[#   4]+0.002*[#  11]+0.002*[#  12]
          +0.002*[#  13]
    |psi|^2 = 1.000
==== e(   5) =    13.59731 eV ==== 
     psi = 0.245*[#  10]+0.161*[#  11]+0.161*[#  12]+0.161*[#  13]+0.073*[#   6]
          +0.073*[#   7]+0.073*[#   9]+0.018*[#   5]+0.018*[#   8]+0.010*[#   1]
          +0.002*[#   2]+0.002*[#   3]+0.002*[#   4]
    |psi|^2 = 0.999
==== e(   6) =    15.40649 eV ==== 
     psi = 0.296*[#   6]+0.296*[#   7]+0.296*[#   9]+0.036*[#  11]+0.036*[#  12]
          +0.036*[#  13]
    |psi|^2 = 0.997
==== e(   7) =    15.70703 eV ==== 
     psi = 0.323*[#   5]+0.323*[#   8]+0.100*[#   6]+0.100*[#   7]+0.100*[#   9]
          +0.013*[#  11]+0.013*[#  12]+0.013*[#  13]+0.005*[#  10]
    |psi|^2 = 0.992
==== e(   8) =    16.75736 eV ==== 
     psi = 0.495*[#   5]+0.495*[#   8]+0.002*[#  11]+0.002*[#  12]+0.002*[#  13]
          
    |psi|^2 = 0.997
==== e(   9) =    17.26079 eV ==== 
     psi = 0.333*[#   6]+0.333*[#   7]+0.333*[#   9]
    |psi|^2 = 0.998
==== e(  10) =    19.24704 eV ==== 
     psi = 0.155*[#   6]+0.155*[#   7]+0.155*[#   9]+0.147*[#   5]+0.147*[#   8]
          +0.074*[#  10]+0.054*[#  11]+0.054*[#  12]+0.054*[#  13]+0.002*[#   1]
          
    |psi|^2 = 1.000

 k =  -0.5250000000  0.5250000000  0.0000000000
==== e(   1) =   -84.91149 eV ==== 
     psi = 0.975*[#   1]+0.007*[#  11]+0.007*[#  12]+0.007*[#  13]+0.003*[#  10]
          
    |psi|^2 = 1.000
==== e(   2) =   -45.39609 eV ==== 
     psi = 0.331*[#   2]+0.331*[#   3]+0.331*[#   4]+0.001*[#  10]+0.001*[#  11]
          +0.001*[#  12]+0.001*[#  13]
    |psi|^2 = 1.000
==== e(   3) =   -45.33601 eV ==== 
     psi = 0.333*[#   2]+0.333*[#   3]+0.333*[#   4]
    |psi|^2 = 1.000
==== e(   4) =   -45.26779 eV ==== 
     psi = 0.331*[#   2]+0.331*[#   3]+0.331*[#   4]+0.002*[#  11]+0.002*[#  12]
          +0.002*[#  13]
    |psi|^2 = 1.000
==== e(   5) =    14.02328 eV ==== 
     psi = 0.193*[#  10]+0.146*[#  11]+0.146*[#  12]+0.146*[#  13]+0.104*[#   6]
          +0.104*[#   7]+0.104*[#   9]+0.022*[#   5]+0.022*[#   8]+0.006*[#   1]
          +0.001*[#   2]+0.001*[#   3]+0.001*[#   4]
    |psi|^2 = 0.999
==== e(   6) =    15.43737 eV ==== 
     psi = 0.291*[#   6]+0.291*[#   7]+0.291*[#   9]+0.041*[#  11]+0.041*[#  12]
          +0.041*[#  13]
    |psi|^2 = 0.997
==== e(   7) =    15.52525 eV ==== 
     psi = 0.341*[#   5]+0.341*[#   8]+0.084*[#   6]+0.084*[#   7]+0.084*[#   9]
          +0.016*[#  11]+0.016*[#  12]+0.016*[#  13]+0.007*[#  10]
    |psi|^2 = 0.991
==== e(   8) =    16.79327 eV ==== 
     psi = 0.494*[#   5]+0.494*[#   8]+0.003*[#  11]+0.003*[#  12]+0.003*[#  13]
          
    |psi|^2 = 0.997
==== e(   9) =    17.38495 eV ==== 
     psi = 0.333*[#   6]+0.333*[#   7]+0.333*[#   9]
    |psi|^2 = 0.998
==== e(  10) =    19.77545 eV ==== 
     psi = 0.140*[#   6]+0.140*[#   7]+0.140*[#   9]+0.121*[#   5]+0.121*[#   8]
          +0.102*[#  10]+0.077*[#  11]+0.077*[#  12]+0.077*[#  13]+0.002*[#   1]
          
    |psi|^2 = 1.000

 k =  -0.5625000000  0.5625000000  0.0000000000
==== e(   1) =   -84.90918 eV ==== 
     psi = 0.980*[#   1]+0.005*[#  11]+0.005*[#  12]+0.005*[#  13]+0.004*[#  10]
          
    |psi|^2 = 1.000
==== e(   2) =   -45.39716 eV ==== 
     psi = 0.332*[#   2]+0.332*[#   3]+0.332*[#   4]+0.001*[#  11]+0.001*[#  12]
          +0.001*[#  13]+0.001*[#  10]
    |psi|^2 = 1.000
==== e(   3) =   -45.34882 eV ==== 
     psi = 0.333*[#   2]+0.333*[#   3]+0.333*[#   4]
    |psi|^2 = 1.000
==== e(   4) =   -45.27303 eV ==== 
     psi = 0.331*[#   2]+0.331*[#   3]+0.331*[#   4]+0.002*[#  11]+0.002*[#  12]
          +0.002*[#  13]
    |psi|^2 = 1.000
==== e(   5) =    14.35334 eV ==== 
     psi = 0.143*[#  10]+0.141*[#   6]+0.141*[#   7]+0.141*[#   9]+0.126*[#  11]
          +0.126*[#  12]+0.126*[#  13]+0.023*[#   5]+0.023*[#   8]+0.004*[#   1]
          +0.001*[#   2]+0.001*[#   3]+0.001*[#   4]
    |psi|^2 = 0.998
==== e(   6) =    15.33230 eV ==== 
     psi = 0.359*[#   5]+0.359*[#   8]+0.068*[#   6]+0.068*[#   7]+0.068*[#   9]
          +0.020*[#  11]+0.020*[#  12]+0.020*[#  13]+0.010*[#  10]
    |psi|^2 = 0.990
==== e(   7) =    15.50133 eV ==== 
     psi = 0.285*[#   6]+0.285*[#   7]+0.285*[#   9]+0.047*[#  11]+0.047*[#  12]
          +0.047*[#  13]
    |psi|^2 = 0.998
==== e(   8) =    16.85056 eV ==== 
     psi = 0.493*[#   5]+0.493*[#   8]+0.004*[#  11]+0.004*[#  12]+0.004*[#  13]
          
    |psi|^2 = 0.998
==== e(   9) =    17.50611 eV ==== 
     psi = 0.333*[#   6]+0.333*[#   7]+0.333*[#   9]
    |psi|^2 = 0.998
==== e(  10) =    20.41734 eV ==== 
     psi = 0.129*[#  10]+0.120*[#   6]+0.120*[#   7]+0.120*[#   9]+0.104*[#  11]
          +0.104*[#  12]+0.104*[#  13]+0.097*[#   5]+0.097*[#   8]+0.002*[#   1]
          
    |psi|^2 = 0.999

 k =  -0.6000000000  0.6000000000  0.0000000000
==== e(   1) =   -84.90723 eV ==== 
     psi = 0.985*[#   1]+0.004*[#  10]+0.004*[#  11]+0.004*[#  12]+0.004*[#  13]
          
    |psi|^2 = 1.000
==== e(   2) =   -45.39511 eV ==== 
     psi = 0.332*[#   2]+0.332*[#   3]+0.332*[#   4]+0.001*[#  11]+0.001*[#  12]
          +0.001*[#  13]
    |psi|^2 = 1.000
==== e(   3) =   -45.36162 eV ==== 
     psi = 0.333*[#   2]+0.333*[#   3]+0.333*[#   4]
    |psi|^2 = 1.000
==== e(   4) =   -45.27840 eV ==== 
     psi = 0.332*[#   2]+0.332*[#   3]+0.332*[#   4]+0.002*[#  11]+0.002*[#  12]
          +0.002*[#  13]
    |psi|^2 = 1.000
==== e(   5) =    14.57771 eV ==== 
     psi = 0.182*[#   6]+0.182*[#   7]+0.182*[#   9]+0.103*[#  11]+0.103*[#  12]
          +0.103*[#  13]+0.101*[#  10]+0.019*[#   5]+0.019*[#   8]+0.002*[#   1]
          
    |psi|^2 = 0.998
==== e(   6) =    15.13144 eV ==== 
     psi = 0.378*[#   5]+0.378*[#   8]+0.049*[#   6]+0.049*[#   7]+0.049*[#   9]
          +0.025*[#  11]+0.025*[#  12]+0.025*[#  13]+0.012*[#  10]
    |psi|^2 = 0.989
==== e(   7) =    15.59998 eV ==== 
     psi = 0.280*[#   6]+0.280*[#   7]+0.280*[#   9]+0.053*[#  11]+0.053*[#  12]
          +0.053*[#  13]
    |psi|^2 = 0.998
==== e(   8) =    16.92838 eV ==== 
     psi = 0.493*[#   5]+0.493*[#   8]+0.004*[#  11]+0.004*[#  12]+0.004*[#  13]
          
    |psi|^2 = 0.998
==== e(   9) =    17.62258 eV ==== 
     psi = 0.333*[#   6]+0.333*[#   7]+0.333*[#   9]
    |psi|^2 = 0.999
==== e(  10) =    21.18075 eV ==== 
     psi = 0.149*[#  10]+0.132*[#  11]+0.132*[#  12]+0.132*[#  13]+0.099*[#   6]
          +0.099*[#   7]+0.099*[#   9]+0.076*[#   5]+0.076*[#   8]+0.001*[#   1]
          
    |psi|^2 = 0.999

 k =  -0.6375000000  0.6375000000  0.0000000000
==== e(   1) =   -84.90564 eV ==== 
     psi = 0.988*[#   1]+0.005*[#  10]+0.002*[#  11]+0.002*[#  12]+0.002*[#  13]
          
    |psi|^2 = 1.000
==== e(   2) =   -45.39021 eV ==== 
     psi = 0.332*[#   2]+0.332*[#   3]+0.332*[#   4]+0.001*[#  11]+0.001*[#  12]
          +0.001*[#  13]
    |psi|^2 = 1.000
==== e(   3) =   -45.37422 eV ==== 
     psi = 0.333*[#   2]+0.333*[#   3]+0.333*[#   4]
    |psi|^2 = 1.000
==== e(   4) =   -45.28381 eV ==== 
     psi = 0.332*[#   2]+0.332*[#   3]+0.332*[#   4]+0.001*[#  11]+0.001*[#  12]
          +0.001*[#  13]
    |psi|^2 = 1.000
==== e(   5) =    14.70038 eV ==== 
     psi = 0.229*[#   6]+0.229*[#   7]+0.229*[#   9]+0.075*[#  11]+0.075*[#  12]
          +0.075*[#  13]+0.073*[#  10]+0.005*[#   5]+0.005*[#   8]
    |psi|^2 = 0.996
==== e(   6) =    14.92756 eV ==== 
     psi = 0.402*[#   5]+0.402*[#   8]+0.035*[#  11]+0.035*[#  12]+0.035*[#  13]
          +0.022*[#   6]+0.022*[#   7]+0.022*[#   9]+0.012*[#  10]
    |psi|^2 = 0.989
==== e(   7) =    15.73499 eV ==== 
     psi = 0.274*[#   6]+0.274*[#   7]+0.274*[#   9]+0.058*[#  11]+0.058*[#  12]
          +0.058*[#  13]
    |psi|^2 = 0.998
==== e(   8) =    17.02508 eV ==== 
     psi = 0.492*[#   5]+0.492*[#   8]+0.005*[#  11]+0.005*[#  12]+0.005*[#  13]
          
    |psi|^2 = 0.998
==== e(   9) =    17.73288 eV ==== 
     psi = 0.333*[#   6]+0.333*[#   7]+0.333*[#   9]
    |psi|^2 = 0.999
==== e(  10) =    22.06235 eV ==== 
     psi = 0.160*[#  11]+0.160*[#  12]+0.160*[#  13]+0.159*[#  10]+0.079*[#   6]
          +0.079*[#   7]+0.079*[#   9]+0.060*[#   5]+0.060*[#   8]
    |psi|^2 = 0.998

 k =  -0.6750000000  0.6750000000  0.0000000000
==== e(   1) =   -84.90439 eV ==== 
     psi = 0.991*[#   1]+0.005*[#  10]+0.001*[#  11]+0.001*[#  12]+0.001*[#  13]
          
    |psi|^2 = 1.000
==== e(   2) =   -45.38638 eV ==== 
     psi = 0.333*[#   2]+0.333*[#   3]+0.333*[#   4]
    |psi|^2 = 1.000
==== e(   3) =   -45.38294 eV ==== 
     psi = 0.332*[#   2]+0.332*[#   3]+0.332*[#   4]
    |psi|^2 = 1.000
==== e(   4) =   -45.28914 eV ==== 
     psi = 0.332*[#   2]+0.332*[#   3]+0.332*[#   4]+0.001*[#  11]+0.001*[#  12]
          +0.001*[#  13]
    |psi|^2 = 1.000
==== e(   5) =    14.69432 eV ==== 
     psi = 0.210*[#   5]+0.210*[#   8]+0.168*[#   6]+0.168*[#   7]+0.168*[#   9]
          +0.060*[#  10]
    |psi|^2 = 0.985
==== e(   6) =    14.76722 eV ==== 
     psi = 0.205*[#   5]+0.205*[#   8]+0.100*[#   6]+0.100*[#   7]+0.100*[#   9]
          +0.093*[#  11]+0.093*[#  12]+0.093*[#  13]+0.006*[#  10]
    |psi|^2 = 0.998
==== e(   7) =    15.90697 eV ==== 
     psi = 0.269*[#   6]+0.269*[#   7]+0.269*[#   9]+0.063*[#  11]+0.063*[#  12]
          +0.063*[#  13]
    |psi|^2 = 0.999
==== e(   8) =    17.13781 eV ==== 
     psi = 0.492*[#   5]+0.492*[#   8]+0.005*[#  11]+0.005*[#  12]+0.005*[#  13]
          
    |psi|^2 = 0.999
==== e(   9) =    17.83566 eV ==== 
     psi = 0.333*[#   6]+0.333*[#   7]+0.333*[#   9]
    |psi|^2 = 0.999
==== e(  10) =    23.05020 eV ==== 
     psi = 0.187*[#  11]+0.187*[#  12]+0.187*[#  13]+0.154*[#  10]+0.061*[#   6]
          +0.061*[#   7]+0.061*[#   9]+0.047*[#   5]+0.047*[#   8]
    |psi|^2 = 0.997

 k =  -0.7125000000  0.7125000000  0.0000000000
==== e(   1) =   -84.90345 eV ==== 
     psi = 0.992*[#   1]+0.006*[#  10]
    |psi|^2 = 1.000
==== e(   2) =   -45.39791 eV ==== 
     psi = 0.332*[#   2]+0.332*[#   3]+0.332*[#   4]
    |psi|^2 = 1.000
==== e(   3) =   -45.37387 eV ==== 
     psi = 0.333*[#   2]+0.333*[#   3]+0.333*[#   4]
    |psi|^2 = 1.000
==== e(   4) =   -45.29428 eV ==== 
     psi = 0.332*[#   2]+0.332*[#   3]+0.332*[#   4]+0.001*[#  11]+0.001*[#  12]
          +0.001*[#  13]
    |psi|^2 = 1.000
==== e(   5) =    14.50324 eV ==== 
     psi = 0.374*[#   5]+0.374*[#   8]+0.049*[#   6]+0.049*[#   7]+0.049*[#   9]
          +0.044*[#  10]+0.015*[#  11]+0.015*[#  12]+0.015*[#  13]
    |psi|^2 = 0.985
==== e(   6) =    14.73182 eV ==== 
     psi = 0.233*[#   6]+0.233*[#   7]+0.233*[#   9]+0.064*[#  11]+0.064*[#  12]
          +0.064*[#  13]+0.044*[#   5]+0.044*[#   8]+0.015*[#  10]
    |psi|^2 = 0.996
==== e(   7) =    16.11608 eV ==== 
     psi = 0.265*[#   6]+0.265*[#   7]+0.265*[#   9]+0.067*[#  11]+0.067*[#  12]
          +0.067*[#  13]
    |psi|^2 = 0.999
==== e(   8) =    17.26278 eV ==== 
     psi = 0.493*[#   5]+0.493*[#   8]+0.005*[#  11]+0.005*[#  12]+0.005*[#  13]
          
    |psi|^2 = 0.999
==== e(   9) =    17.92975 eV ==== 
     psi = 0.333*[#   6]+0.333*[#   7]+0.333*[#   9]
    |psi|^2 = 0.999
==== e(  10) =    24.12760 eV ==== 
     psi = 0.214*[#  11]+0.214*[#  12]+0.214*[#  13]+0.134*[#  10]+0.047*[#   6]
          +0.047*[#   7]+0.047*[#   9]+0.038*[#   5]+0.038*[#   8]
    |psi|^2 = 0.996

 k =  -0.7500000000  0.7500000000  0.0000000000
==== e(   1) =   -84.90278 eV ==== 
     psi = 0.993*[#   1]+0.006*[#  10]
    |psi|^2 = 1.000
==== e(   2) =   -45.40859 eV ==== 
     psi = 0.332*[#   2]+0.332*[#   3]+0.332*[#   4]+0.001*[#  11]+0.001*[#  12]
          +0.001*[#  13]
    |psi|^2 = 1.000
==== e(   3) =   -45.36366 eV ==== 
     psi = 0.333*[#   2]+0.333*[#   3]+0.333*[#   4]
    |psi|^2 = 1.000
==== e(   4) =   -45.29913 eV ==== 
     psi = 0.332*[#   2]+0.332*[#   3]+0.332*[#   4]
    |psi|^2 = 1.000
==== e(   5) =    14.30491 eV ==== 
     psi = 0.399*[#   5]+0.399*[#   8]+0.050*[#  10]+0.026*[#   6]+0.026*[#   7]
          +0.026*[#   9]+0.019*[#  11]+0.019*[#  12]+0.019*[#  13]
    |psi|^2 = 0.985
==== e(   6) =    14.66934 eV ==== 
     psi = 0.268*[#   6]+0.268*[#   7]+0.268*[#   9]+0.045*[#  11]+0.045*[#  12]
          +0.045*[#  13]+0.022*[#   5]+0.022*[#   8]+0.009*[#  10]
    |psi|^2 = 0.994
==== e(   7) =    16.36169 eV ==== 
     psi = 0.262*[#   6]+0.262*[#   7]+0.262*[#   9]+0.071*[#  11]+0.071*[#  12]
          +0.071*[#  13]
    |psi|^2 = 0.999
==== e(   8) =    17.39503 eV ==== 
     psi = 0.493*[#   5]+0.493*[#   8]+0.004*[#  11]+0.004*[#  12]+0.004*[#  13]
          
    |psi|^2 = 0.999
==== e(   9) =    18.01416 eV ==== 
     psi = 0.333*[#   6]+0.333*[#   7]+0.333*[#   9]
    |psi|^2 = 0.999
==== e(  10) =    23.74037 eV ==== 
     psi = 0.261*[#  11]+0.261*[#  12]+0.261*[#  13]+0.071*[#   6]+0.071*[#   7]
          +0.071*[#   9]
    |psi|^2 = 0.998

Lowdin Charges: 

     Atom #   1: total charge =  18.4778, s =  2.7535, p =  6.8650, d =  8.8593, 
                 spin up      =   9.5524, s =  1.3732, 
                 spin up      =   9.5524, p =  3.4148, pz=  1.1383, px=  1.1383, py=  1.1383, 
                 spin up      =   9.5524, d =  4.7644, dz2=  0.9604, dxz=  0.9479, dyz=  0.9479, dx2-y2=  0.9604, dxy=  0.9479, 
                 spin down    =   8.9254, s =  1.3803, 
                 spin down    =   8.9254, p =  3.4501, pz=  1.1500, px=  1.1500, py=  1.1500, 
                 spin down    =   8.9254, d =  4.0950, dz2=  0.8753, dxz=  0.7815, dyz=  0.7815, dx2-y2=  0.8753, dxy=  0.7815, 
                 polarization =   0.6270, s = -0.0071, p = -0.0353, d =  0.6694, 
     Spilling Parameter:  -0.0265
 
     PROJWFC      :      0.82s CPU      4.72s WALL

 
   This run was terminated on:   1:44:30  31May2023            

=------------------------------------------------------------------------------=
   JOB DONE.
=------------------------------------------------------------------------------=
